DF-ISE text

Info {
  version   = 1.0
  type      = xyplot
  datasets  = [
    "time"
    "Source OuterVoltage" "Source InnerVoltage" "Source QuasiFermiPotential" "Source DisplacementCurrent" "Source eCurrent"
    "Source hCurrent" "Source TotalCurrent" "Source Charge" "Gate OuterVoltage" "Gate InnerVoltage"
    "Gate QuasiFermiPotential" "Gate DisplacementCurrent" "Gate eCurrent" "Gate hCurrent" "Gate TotalCurrent"
    "Gate Charge" "Drain OuterVoltage" "Drain InnerVoltage" "Drain QuasiFermiPotential" "Drain DisplacementCurrent"
    "Drain eCurrent" "Drain hCurrent" "Drain TotalCurrent" "Drain Charge" ]
  functions = [
    Time
    OuterVoltage InnerVoltage QuasiFermiPotential DisplacementCurrent eCurrent
    hCurrent TotalCurrent Charge OuterVoltage InnerVoltage
    QuasiFermiPotential DisplacementCurrent eCurrent hCurrent TotalCurrent
    Charge OuterVoltage InnerVoltage QuasiFermiPotential DisplacementCurrent
    eCurrent hCurrent TotalCurrent Charge ]
}

Data {
      0.00000000000000E+00
      0.00000000000000E+00   0.00000000000000E+00   0.00000000000000E+00   0.00000000000000E+00  -1.40816644950822E-30
      2.57200499728448E-21   2.57200499587631E-21  -1.78379798363365E-16   0.00000000000000E+00   0.00000000000000E+00
      0.00000000000000E+00   0.00000000000000E+00   0.00000000000000E+00   0.00000000000000E+00   0.00000000000000E+00
      3.56452013768149E-16   0.00000000000000E+00   0.00000000000000E+00   0.00000000000000E+00   0.00000000000000E+00
     -2.43128645647912E-30   2.41669337930577E-21   2.41669337687448E-21  -1.78379798363364E-16
      0.00000000000000E+00
      0.00000000000000E+00   0.00000000000000E+00   0.00000000000000E+00   0.00000000000000E+00   2.89343757893240E-28
     -3.15670477366125E-19  -3.15670477076781E-19  -1.78379785989355E-16   0.00000000000000E+00   0.00000000000000E+00
      0.00000000000000E+00   0.00000000000000E+00   0.00000000000000E+00   0.00000000000000E+00   0.00000000000000E+00
      3.56451989018162E-16   0.00000000000000E+00   0.00000000000000E+00   0.00000000000000E+00   0.00000000000000E+00
      2.89430075577431E-28  -3.16356319811646E-19  -3.16356319522216E-19  -1.78379785989355E-16
      0.00000000000000E+00
      0.00000000000000E+00   0.00000000000000E+00   0.00000000000000E+00   0.00000000000000E+00  -2.35719114503601E-30
     -1.59423581787936E-21  -1.59423582023655E-21  -1.78379785989353E-16   0.00000000000000E+00   0.00000000000000E+00
      0.00000000000000E+00   0.00000000000000E+00   0.00000000000000E+00   0.00000000000000E+00   0.00000000000000E+00
      3.56451989018157E-16   0.00000000000000E+00   0.00000000000000E+00   0.00000000000000E+00   0.00000000000000E+00
     -7.69829954623083E-31   1.76940767786176E-22   1.76940767016346E-22  -1.78379785989353E-16
      1.00000000000000E-01
      0.00000000000000E+00   0.00000000000000E+00   0.00000000000000E+00   0.00000000000000E+00   2.93626582492676E-30
     -2.94141842472057E-23  -2.94141813109399E-23  -1.99564500319291E-16   5.00000000000000E-02   5.00000000000000E-02
      0.00000000000000E+00   0.00000000000000E+00   0.00000000000000E+00   0.00000000000000E+00   0.00000000000000E+00
      3.98823885142736E-16   0.00000000000000E+00   0.00000000000000E+00   0.00000000000000E+00   0.00000000000000E+00
      6.81463681088427E-30   2.27206933928858E-22   2.27206940743494E-22  -1.99564500319291E-16
      2.80000000000000E-01
      0.00000000000000E+00   0.00000000000000E+00   0.00000000000000E+00   0.00000000000000E+00  -6.91590517921654E-30
      1.32917308041368E-23   1.32917238882316E-23  -2.37501450655775E-16   1.40000000000000E-01   1.40000000000000E-01
      0.00000000000000E+00   0.00000000000000E+00   0.00000000000000E+00   0.00000000000000E+00   0.00000000000000E+00
      4.74698598744132E-16   0.00000000000000E+00   0.00000000000000E+00   0.00000000000000E+00   0.00000000000000E+00
      1.44827337186894E-30   1.67862160010916E-23   1.67862174493650E-23  -2.37501450655775E-16
      6.16000000000000E-01
      0.00000000000000E+00   0.00000000000000E+00   0.00000000000000E+00   0.00000000000000E+00  -1.13925210563365E-29
     -5.11490796725249E-25  -5.11502189246306E-25  -3.07941810775931E-16   3.08000000000000E-01   3.08000000000000E-01
      0.00000000000000E+00   0.00000000000000E+00   0.00000000000000E+00   0.00000000000000E+00   0.00000000000000E+00
      6.15579413160559E-16   0.00000000000000E+00   0.00000000000000E+00   0.00000000000000E+00   0.00000000000000E+00
     -5.20519389808535E-28   1.22159333004699E-25   1.21638813614891E-25  -3.07941810775931E-16
      1.00000000000000E+00
      0.00000000000000E+00   0.00000000000000E+00   0.00000000000000E+00   0.00000000000000E+00   8.17797391901804E-24
     -3.95666798087105E-27   8.17401725103717E-24  -3.88156010269930E-16   5.00000000000000E-01   5.00000000000000E-01
      0.00000000000000E+00   0.00000000000000E+00   0.00000000000000E+00   0.00000000000000E+00   0.00000000000000E+00
      7.76014118134551E-16   0.00000000000000E+00   0.00000000000000E+00   0.00000000000000E+00   0.00000000000000E+00
      8.13781178148822E-24  -3.98158725684864E-27   8.13383019423137E-24  -3.88156010269929E-16
      0.00000000000000E+00
      0.00000000000000E+00   0.00000000000000E+00   0.00000000000000E+00   0.00000000000000E+00   1.64076470287846E-25
      4.67426716277501E-28   1.64543897004124E-25  -3.88156010269825E-16   5.00000000000000E-01   5.00000000000000E-01
      0.00000000000000E+00   0.00000000000000E+00   0.00000000000000E+00   0.00000000000000E+00   0.00000000000000E+00
      7.76014118136167E-16   0.00000000000000E+00   0.00000000000000E+00   0.00000000000000E+00   0.00000000000000E+00
     -6.97946042670149E-26   4.66633621181891E-28  -6.93279706458330E-26  -3.88156010269824E-16
      1.00000000000000E-01
      0.00000000000000E+00   0.00000000000000E+00   0.00000000000000E+00   0.00000000000000E+00   1.55536501478563E-23
      1.19436130720715E-17   1.19436286257217E-17  -3.88153332720892E-16   5.00000000000000E-01   5.00000000000000E-01
      0.00000000000000E+00   0.00000000000000E+00   0.00000000000000E+00   0.00000000000000E+00   0.00000000000000E+00
      7.76431539461490E-16  -1.00000000000000E-03  -9.99999999999974E-04   0.00000000000000E+00   0.00000000000000E+00
     -1.41358670609041E-23  -1.19436132796232E-17  -1.19436274154903E-17  -3.88576000647384E-16
      2.80000000000000E-01
      0.00000000000000E+00   0.00000000000000E+00   0.00000000000000E+00   0.00000000000000E+00   4.28980890972826E-23
      3.24666395349987E-17   3.24666824330878E-17  -3.88148513108524E-16   5.00000000000000E-01   5.00000000000000E-01
      0.00000000000000E+00   0.00000000000000E+00   0.00000000000000E+00   0.00000000000000E+00   0.00000000000000E+00
      7.77182890411714E-16  -2.80000000000000E-03  -2.80000000000000E-03   0.00000000000000E+00   0.00000000000000E+00
     -4.18562430430131E-23  -3.24666408683898E-17  -3.24666827246328E-17  -3.89331973860769E-16
      6.16000000000000E-01
      0.00000000000000E+00   0.00000000000000E+00   0.00000000000000E+00   0.00000000000000E+00   1.00072675778496E-22
      6.76588622614945E-17   6.76589623341703E-17  -3.88139516440540E-16   5.00000000000000E-01   5.00000000000000E-01
      0.00000000000000E+00   0.00000000000000E+00   0.00000000000000E+00   0.00000000000000E+00   0.00000000000000E+00
      7.78585386415010E-16  -6.16000000000000E-03  -6.16000000000000E-03   0.00000000000000E+00   0.00000000000000E+00
     -8.62262848961072E-23  -6.76588685002252E-17  -6.76589547265101E-17  -3.90743091587017E-16
      1.00000000000000E+00
      0.00000000000000E+00   0.00000000000000E+00   0.00000000000000E+00   0.00000000000000E+00   1.59564638496170E-22
      1.03415030939856E-16   1.03415190504494E-16  -3.88129234498719E-16   5.00000000000000E-01   5.00000000000000E-01
      0.00000000000000E+00   0.00000000000000E+00   0.00000000000000E+00   0.00000000000000E+00   0.00000000000000E+00
      7.80188197470084E-16  -1.00000000000000E-02  -1.00000000000000E-02   0.00000000000000E+00   0.00000000000000E+00
     -1.43036763563256E-22  -1.03415047255784E-16  -1.03415190292548E-16  -3.92355746766416E-16
      0.00000000000000E+00
      0.00000000000000E+00   0.00000000000000E+00   0.00000000000000E+00   0.00000000000000E+00   1.58917109411883E-22
      1.03415030928350E-16   1.03415189845459E-16  -3.88129234498829E-16   5.00000000000000E-01   5.00000000000000E-01
      0.00000000000000E+00   0.00000000000000E+00   0.00000000000000E+00   0.00000000000000E+00   0.00000000000000E+00
      7.80188197468385E-16  -1.00000000000000E-02  -1.00000000000000E-02   0.00000000000000E+00   0.00000000000000E+00
     -1.43004237567175E-22  -1.03415047249102E-16  -1.03415190253340E-16  -3.92355746766525E-16
      1.00000000000000E-01
      0.00000000000000E+00   0.00000000000000E+00   0.00000000000000E+00   0.00000000000000E+00   1.44372764881335E-21
      3.67448023627179E-16   3.67449467354828E-16  -3.87944567630925E-16   5.00000000000000E-01   5.00000000000000E-01
      0.00000000000000E+00   0.00000000000000E+00   0.00000000000000E+00   0.00000000000000E+00   0.00000000000000E+00
      8.08980417484139E-16  -7.90000000000000E-02  -7.90000000000000E-02   0.00000000000000E+00   0.00000000000000E+00
     -6.76972646749443E-22  -3.67448785519149E-16  -3.67449462491795E-16  -4.21324862459557E-16
      2.60000000000000E-01
      0.00000000000000E+00   0.00000000000000E+00   0.00000000000000E+00   0.00000000000000E+00   3.24889052800103E-21
      5.06422218297418E-16   5.06425467187946E-16  -3.87649711877327E-16   5.00000000000000E-01   5.00000000000000E-01
      0.00000000000000E+00   0.00000000000000E+00   0.00000000000000E+00   0.00000000000000E+00   0.00000000000000E+00
      8.55016903746837E-16  -1.89400000000000E-01  -1.89400000000000E-01   0.00000000000000E+00   0.00000000000000E+00
     -7.73909339576561E-22  -5.06424593308513E-16  -5.06425367217853E-16  -4.67649703195092E-16
      4.84000000000000E-01
      0.00000000000000E+00   0.00000000000000E+00   0.00000000000000E+00   0.00000000000000E+00   6.02284717801904E-21
      7.25908109443327E-16   7.25914132290505E-16  -3.87237590782813E-16   5.00000000000000E-01   5.00000000000000E-01
      0.00000000000000E+00   0.00000000000000E+00   0.00000000000000E+00   0.00000000000000E+00   0.00000000000000E+00
      9.19427692215068E-16  -3.43960000000000E-01  -3.43960000000000E-01   0.00000000000000E+00   0.00000000000000E+00
     -7.78909920486362E-22  -7.25912783580468E-16  -7.25913562490388E-16  -5.32468476202835E-16
      8.42400000000000E-01
      0.00000000000000E+00   0.00000000000000E+00   0.00000000000000E+00   0.00000000000000E+00   7.97232294562169E-21
      1.23341852353369E-15   1.23342649585664E-15  -3.86579312490125E-16   5.00000000000000E-01   5.00000000000000E-01
      0.00000000000000E+00   0.00000000000000E+00   0.00000000000000E+00   0.00000000000000E+00   0.00000000000000E+00
      1.02242671918879E-15  -5.91256000000000E-01  -5.91256000000000E-01   0.00000000000000E+00   0.00000000000000E+00
     -7.88549631917093E-22  -1.23342564695289E-15  -1.23342643550252E-15  -6.36128039757898E-16
      1.00000000000000E+00
      0.00000000000000E+00   0.00000000000000E+00   0.00000000000000E+00   0.00000000000000E+00   1.02405631028343E-20
      1.53514710973302E-15   1.53515735029612E-15  -3.86289935017939E-16   5.00000000000000E-01   5.00000000000000E-01
      0.00000000000000E+00   0.00000000000000E+00   0.00000000000000E+00   0.00000000000000E+00   0.00000000000000E+00
      1.06770718109757E-15  -7.00000000000000E-01  -7.00000000000000E-01   0.00000000000000E+00   0.00000000000000E+00
     -7.89412920489335E-22  -1.53515569244520E-15  -1.53515648185812E-15  -6.81698284306074E-16
}
