DF-ISE text

Info {
  version   = 1.0
  type      = xyplot
  datasets  = [
    "time"
    "Source OuterVoltage" "Source InnerVoltage" "Source QuasiFermiPotential" "Source DisplacementCurrent" "Source eCurrent"
    "Source hCurrent" "Source TotalCurrent" "Source Charge" "Gate OuterVoltage" "Gate InnerVoltage"
    "Gate QuasiFermiPotential" "Gate DisplacementCurrent" "Gate eCurrent" "Gate hCurrent" "Gate TotalCurrent"
    "Gate Charge" "Drain OuterVoltage" "Drain InnerVoltage" "Drain QuasiFermiPotential" "Drain DisplacementCurrent"
    "Drain eCurrent" "Drain hCurrent" "Drain TotalCurrent" "Drain Charge" ]
  functions = [
    Time
    OuterVoltage InnerVoltage QuasiFermiPotential DisplacementCurrent eCurrent
    hCurrent TotalCurrent Charge OuterVoltage InnerVoltage
    QuasiFermiPotential DisplacementCurrent eCurrent hCurrent TotalCurrent
    Charge OuterVoltage InnerVoltage QuasiFermiPotential DisplacementCurrent
    eCurrent hCurrent TotalCurrent Charge ]
}

Data {
      0.00000000000000E+00
      0.00000000000000E+00   0.00000000000000E+00   0.00000000000000E+00   0.00000000000000E+00  -1.40664807524475E-22
      1.72949106919545E-30  -1.40664805794984E-22   1.99948681500934E-16   0.00000000000000E+00   0.00000000000000E+00
      0.00000000000000E+00   0.00000000000000E+00   0.00000000000000E+00   0.00000000000000E+00   0.00000000000000E+00
     -3.99592211196977E-16   0.00000000000000E+00   0.00000000000000E+00   0.00000000000000E+00   0.00000000000000E+00
      6.78830273237232E-23   1.50563172447757E-30   6.78830288293549E-23   1.99948681500934E-16
      0.00000000000000E+00
      0.00000000000000E+00   0.00000000000000E+00   0.00000000000000E+00   0.00000000000000E+00   2.68616433086736E-20
     -3.86820354301866E-29   2.68616432699916E-20   1.99948677520802E-16   0.00000000000000E+00   0.00000000000000E+00
      0.00000000000000E+00   0.00000000000000E+00   0.00000000000000E+00   0.00000000000000E+00   0.00000000000000E+00
     -3.99592203236468E-16   0.00000000000000E+00   0.00000000000000E+00   0.00000000000000E+00   0.00000000000000E+00
      2.62926857315035E-20  -3.87595827504650E-29   2.62926856927439E-20   1.99948677520802E-16
      0.00000000000000E+00
      0.00000000000000E+00   0.00000000000000E+00   0.00000000000000E+00   0.00000000000000E+00  -2.86478455303468E-22
     -5.82858955050606E-31  -2.86478455886327E-22   1.99948677520801E-16   0.00000000000000E+00   0.00000000000000E+00
      0.00000000000000E+00   0.00000000000000E+00   0.00000000000000E+00   0.00000000000000E+00   0.00000000000000E+00
     -3.99592203236467E-16   0.00000000000000E+00   0.00000000000000E+00   0.00000000000000E+00   0.00000000000000E+00
     -3.43703790053735E-22  -2.30919520891061E-31  -3.43703790284655E-22   1.99948677520802E-16
      1.00000000000000E-01
      0.00000000000000E+00   0.00000000000000E+00   0.00000000000000E+00   0.00000000000000E+00   4.37890949240142E-23
     -7.24142648494050E-31   4.37890941998716E-23   2.21051469647745E-16  -5.00000000000000E-02  -5.00000000000000E-02
      0.00000000000000E+00   0.00000000000000E+00   0.00000000000000E+00   0.00000000000000E+00   0.00000000000000E+00
     -4.41798469845237E-16   0.00000000000000E+00   0.00000000000000E+00   0.00000000000000E+00   0.00000000000000E+00
     -2.01251745802196E-22   2.17035291434278E-31  -2.01251745585161E-22   2.21051469647745E-16
      2.73333333333333E-01
      0.00000000000000E+00   0.00000000000000E+00   0.00000000000000E+00   0.00000000000000E+00  -6.86959985897794E-24
      4.91431420594985E-30  -6.86959494466373E-24   2.57493770158081E-16  -1.36666666666667E-01  -1.36666666666667E-01
      0.00000000000000E+00   0.00000000000000E+00   0.00000000000000E+00   0.00000000000000E+00   0.00000000000000E+00
     -5.14683297221385E-16   0.00000000000000E+00   0.00000000000000E+00   0.00000000000000E+00   0.00000000000000E+00
     -6.61622009088212E-24   2.79623322001603E-29  -6.61619212854991E-24   2.57493770158081E-16
      5.96888888888889E-01
      0.00000000000000E+00   0.00000000000000E+00   0.00000000000000E+00   0.00000000000000E+00  -1.79450622835584E-25
      2.26393611944032E-28  -1.79224229223640E-25   3.25247349682279E-16  -2.98444444444444E-01  -2.98444444444444E-01
      0.00000000000000E+00   0.00000000000000E+00   0.00000000000000E+00   0.00000000000000E+00   0.00000000000000E+00
     -6.50190516551041E-16   0.00000000000000E+00   0.00000000000000E+00   0.00000000000000E+00   0.00000000000000E+00
     -2.18940735886423E-25  -5.82565991911990E-28  -2.19523301878335E-25   3.25247349682278E-16
      1.00000000000000E+00
      0.00000000000000E+00   0.00000000000000E+00   0.00000000000000E+00   0.00000000000000E+00   5.79877425295422E-27
     -2.47658776772563E-24  -2.47078899347267E-24   4.09408373733521E-16  -5.00000000000000E-01  -5.00000000000000E-01
      0.00000000000000E+00   0.00000000000000E+00   0.00000000000000E+00   0.00000000000000E+00   0.00000000000000E+00
     -8.18545739588575E-16   0.00000000000000E+00   0.00000000000000E+00   0.00000000000000E+00   0.00000000000000E+00
      5.46576505750116E-27  -1.43370850626625E-24  -1.42824274120875E-24   4.09408373733521E-16
      0.00000000000000E+00
      0.00000000000000E+00   0.00000000000000E+00   0.00000000000000E+00   0.00000000000000E+00  -3.23278936718354E-27
     -2.23606366700417E-25  -2.26839156067601E-25   4.09408373732736E-16  -5.00000000000000E-01  -5.00000000000000E-01
      0.00000000000000E+00   0.00000000000000E+00   0.00000000000000E+00   0.00000000000000E+00   0.00000000000000E+00
     -8.18545739600854E-16   0.00000000000000E+00   0.00000000000000E+00   0.00000000000000E+00   0.00000000000000E+00
     -1.38441136627737E-28  -1.12986442306843E-25  -1.13124883443471E-25   4.09408373732735E-16
      1.00000000000000E-01
      0.00000000000000E+00   0.00000000000000E+00   0.00000000000000E+00   0.00000000000000E+00  -6.56715543654530E-18
     -2.67681665483681E-23  -6.56718220471185E-18   4.09405673194511E-16  -5.00000000000000E-01  -5.00000000000000E-01
      0.00000000000000E+00   0.00000000000000E+00   0.00000000000000E+00   0.00000000000000E+00   0.00000000000000E+00
     -8.18963411448414E-16   1.00000000000000E-03   9.99999999999974E-04   0.00000000000000E+00   0.00000000000000E+00
      6.56715570193524E-18   1.81471716959324E-23   6.56717384910694E-18   4.09828175382105E-16
      2.73333333333333E-01
      0.00000000000000E+00   0.00000000000000E+00   0.00000000000000E+00   0.00000000000000E+00  -1.74457741039667E-17
     -1.90285540837335E-22  -1.74459643895075E-17   4.09400991792306E-16  -5.00000000000000E-01  -5.00000000000000E-01
      0.00000000000000E+00   0.00000000000000E+00   0.00000000000000E+00   0.00000000000000E+00   0.00000000000000E+00
     -8.19687376499472E-16   2.73333333333333E-03   2.73333333333336E-03   0.00000000000000E+00   0.00000000000000E+00
      1.74457756515437E-17  -6.10004541871814E-23   1.74457146510895E-17   4.10555823878271E-16
      6.08444444444444E-01
      0.00000000000000E+00   0.00000000000000E+00   0.00000000000000E+00   0.00000000000000E+00  -3.67909078732056E-17
     -1.65979647992630E-22  -3.67910738528536E-17   4.09391939622837E-16  -5.00000000000000E-01  -5.00000000000000E-01
      0.00000000000000E+00   0.00000000000000E+00   0.00000000000000E+00   0.00000000000000E+00   0.00000000000000E+00
     -8.21087040650171E-16   6.08444444444444E-03   6.08444444444440E-03   0.00000000000000E+00   0.00000000000000E+00
      3.67909164335325E-17   1.11219786990900E-22   3.67910276533195E-17   4.11962583736889E-16
      1.00000000000000E+00
      0.00000000000000E+00   0.00000000000000E+00   0.00000000000000E+00   0.00000000000000E+00  -5.68652069463804E-17
     -3.77028772702194E-22  -5.68655839751531E-17   4.09381360528727E-16  -5.00000000000000E-01  -5.00000000000000E-01
      0.00000000000000E+00   0.00000000000000E+00   0.00000000000000E+00   0.00000000000000E+00   0.00000000000000E+00
     -8.22722451512570E-16   1.00000000000000E-02   1.00000000000000E-02   0.00000000000000E+00   0.00000000000000E+00
      5.68652292850581E-17   9.30520098748422E-23   5.68653223370680E-17   4.13606246467234E-16
      0.00000000000000E+00
      0.00000000000000E+00   0.00000000000000E+00   0.00000000000000E+00   0.00000000000000E+00  -5.68652063262486E-17
     -2.45606225977349E-22  -5.68654519324746E-17   4.09381360546140E-16  -5.00000000000000E-01  -5.00000000000000E-01
      0.00000000000000E+00   0.00000000000000E+00   0.00000000000000E+00   0.00000000000000E+00   0.00000000000000E+00
     -8.22722451241326E-16   1.00000000000000E-02   1.00000000000000E-02   0.00000000000000E+00   0.00000000000000E+00
      5.68652289190024E-17   2.08582131115014E-22   5.68654375011335E-17   4.13606246484473E-16
      1.00000000000000E-01
      0.00000000000000E+00   0.00000000000000E+00   0.00000000000000E+00   0.00000000000000E+00  -2.02173114948664E-16
     -2.24422773245009E-21  -2.02175359176396E-16   4.09194963850365E-16  -5.00000000000000E-01  -5.00000000000000E-01
      0.00000000000000E+00   0.00000000000000E+00   0.00000000000000E+00   0.00000000000000E+00   0.00000000000000E+00
     -8.51534681356806E-16   7.90000000000000E-02   7.90000000000000E-02   0.00000000000000E+00   0.00000000000000E+00
      2.02174241980327E-16   9.84650656094912E-22   2.02175226630983E-16   4.42564102026165E-16
      1.60000000000000E-01
      0.00000000000000E+00   0.00000000000000E+00   0.00000000000000E+00   0.00000000000000E+00  -2.33350822307176E-16
     -3.43130726499619E-21  -2.33354253614441E-16   4.09083361523528E-16  -5.00000000000000E-01  -5.00000000000000E-01
      0.00000000000000E+00   0.00000000000000E+00   0.00000000000000E+00   0.00000000000000E+00   0.00000000000000E+00
     -8.68813209922429E-16   1.20400000000000E-01   1.20400000000000E-01   0.00000000000000E+00   0.00000000000000E+00
      2.33353034820079E-16   1.11609938521132E-21   2.33354150919464E-16   4.59933649806788E-16
      1.94000000000000E-01
      0.00000000000000E+00   0.00000000000000E+00   0.00000000000000E+00   0.00000000000000E+00  -2.48796398751471E-16
     -4.95546113612094E-21  -2.48801354212607E-16   4.09020187582435E-16  -5.00000000000000E-01  -5.00000000000000E-01
      0.00000000000000E+00   0.00000000000000E+00   0.00000000000000E+00   0.00000000000000E+00   0.00000000000000E+00
     -8.78601895695850E-16   1.43860000000000E-01   1.43860000000000E-01   0.00000000000000E+00   0.00000000000000E+00
      2.48799288329815E-16   1.01146072866842E-21   2.48800299790544E-16   4.69774934901460E-16
      2.16666666666667E-01
      0.00000000000000E+00   0.00000000000000E+00   0.00000000000000E+00   0.00000000000000E+00  -2.59028559879716E-16
     -6.83406805727951E-21  -2.59035393947774E-16   4.08978097582232E-16  -5.00000000000000E-01  -5.00000000000000E-01
      0.00000000000000E+00   0.00000000000000E+00   0.00000000000000E+00   0.00000000000000E+00   0.00000000000000E+00
     -8.85126764719481E-16   1.59500000000000E-01   1.59500000000000E-01   0.00000000000000E+00   0.00000000000000E+00
      2.59031917479317E-16   8.62904764469630E-22   2.59032780384081E-16   4.76335260297450E-16
      2.54444444444444E-01
      0.00000000000000E+00   0.00000000000000E+00   0.00000000000000E+00   0.00000000000000E+00  -2.76412455362359E-16
     -7.26328789674963E-21  -2.76419718650256E-16   4.08908004250238E-16  -5.00000000000000E-01  -5.00000000000000E-01
      0.00000000000000E+00   0.00000000000000E+00   0.00000000000000E+00   0.00000000000000E+00   0.00000000000000E+00
     -8.95999830407321E-16   1.85566666666667E-01   1.85566666666667E-01   0.00000000000000E+00   0.00000000000000E+00
      2.76416606691833E-16   9.90277302117542E-22   2.76417596969135E-16   4.87268272046417E-16
      3.04814814814815E-01
      0.00000000000000E+00   0.00000000000000E+00   0.00000000000000E+00   0.00000000000000E+00  -3.00688025479350E-16
     -7.30405183628714E-21  -3.00695329531186E-16   4.08814691315480E-16  -5.00000000000000E-01  -5.00000000000000E-01
      0.00000000000000E+00   0.00000000000000E+00   0.00000000000000E+00   0.00000000000000E+00   0.00000000000000E+00
     -9.10493578954986E-16   2.20322222222222E-01   2.20322222222222E-01   0.00000000000000E+00   0.00000000000000E+00
      3.00693211174427E-16   1.12113223657762E-21   3.00694332306663E-16   5.01844116019102E-16
      3.30000000000000E-01
      0.00000000000000E+00   0.00000000000000E+00   0.00000000000000E+00   0.00000000000000E+00  -3.13395852358188E-16
     -7.49468594299952E-21  -3.13403347044131E-16   4.08768110566331E-16  -5.00000000000000E-01  -5.00000000000000E-01
      0.00000000000000E+00   0.00000000000000E+00   0.00000000000000E+00   0.00000000000000E+00   0.00000000000000E+00
     -9.17738755221301E-16   2.37700000000000E-01   2.37700000000000E-01   0.00000000000000E+00   0.00000000000000E+00
      3.13401528183826E-16   1.14804752100686E-21   3.13402676231347E-16   5.09131461384294E-16
      3.42592592592593E-01
      0.00000000000000E+00   0.00000000000000E+00   0.00000000000000E+00   0.00000000000000E+00  -3.19903484409313E-16
     -7.21820420365693E-21  -3.19910702613516E-16   4.08744840435463E-16  -5.00000000000000E-01  -5.00000000000000E-01
      0.00000000000000E+00   0.00000000000000E+00   0.00000000000000E+00   0.00000000000000E+00   0.00000000000000E+00
     -9.21360913989113E-16   2.46388888888889E-01   2.46388888888889E-01   0.00000000000000E+00   0.00000000000000E+00
      3.19909396560305E-16   1.17471346545331E-21   3.19910571273770E-16   5.12775001003888E-16
      3.61901234567901E-01
      0.00000000000000E+00   0.00000000000000E+00   0.00000000000000E+00   0.00000000000000E+00  -3.30087797620212E-16
     -9.32453411900978E-21  -3.30097122154331E-16   4.08709185240963E-16  -5.00000000000000E-01  -5.00000000000000E-01
      0.00000000000000E+00   0.00000000000000E+00   0.00000000000000E+00   0.00000000000000E+00   0.00000000000000E+00
     -9.26914353903140E-16   2.59711851851852E-01   2.59711851851852E-01   0.00000000000000E+00   0.00000000000000E+00
      3.30094058833673E-16   1.10966187259418E-21   3.30095168495545E-16   5.18361596771850E-16
      3.86358847736626E-01
      0.00000000000000E+00   0.00000000000000E+00   0.00000000000000E+00   0.00000000000000E+00  -3.43356158741255E-16
     -8.23120415605756E-21  -3.43364389945411E-16   4.08664064500775E-16  -5.00000000000000E-01  -5.00000000000000E-01
      0.00000000000000E+00   0.00000000000000E+00   0.00000000000000E+00   0.00000000000000E+00   0.00000000000000E+00
     -9.33947826690853E-16   2.76587604938272E-01   2.76587604938272E-01   0.00000000000000E+00   0.00000000000000E+00
      3.43362839285437E-16   1.17026209590543E-21   3.43364009547533E-16   5.25437675590973E-16
      4.10816460905350E-01
      0.00000000000000E+00   0.00000000000000E+00   0.00000000000000E+00   0.00000000000000E+00  -3.57049179826073E-16
     -1.18875957008569E-20  -3.57061067421774E-16   4.08618986301596E-16  -5.00000000000000E-01  -5.00000000000000E-01
      0.00000000000000E+00   0.00000000000000E+00   0.00000000000000E+00   0.00000000000000E+00   0.00000000000000E+00
     -9.40980404841720E-16   2.93463358024691E-01   2.93463358024692E-01   0.00000000000000E+00   0.00000000000000E+00
      3.57056254626010E-16   1.08934826062343E-21   3.57057343974270E-16   5.32513458359478E-16
      4.36904581618656E-01
      0.00000000000000E+00   0.00000000000000E+00   0.00000000000000E+00   0.00000000000000E+00  -3.72138267363810E-16
     -8.83081531623957E-21  -3.72147098179127E-16   4.08570943181413E-16  -5.00000000000000E-01  -5.00000000000000E-01
      0.00000000000000E+00   0.00000000000000E+00   0.00000000000000E+00   0.00000000000000E+00   0.00000000000000E+00
     -9.48480954289804E-16   3.11464161316872E-01   3.11464161316873E-01   0.00000000000000E+00   0.00000000000000E+00
      3.72145742168969E-16   1.17922722463761E-21   3.72146921396193E-16   5.40060646970330E-16
      4.44731017832648E-01
      0.00000000000000E+00   0.00000000000000E+00   0.00000000000000E+00   0.00000000000000E+00  -3.76764626468445E-16
     -1.33350018665961E-20  -3.76777961470312E-16   4.08556537050903E-16  -5.00000000000000E-01  -5.00000000000000E-01
      0.00000000000000E+00   0.00000000000000E+00   0.00000000000000E+00   0.00000000000000E+00   0.00000000000000E+00
     -9.50730966569233E-16   3.16864402304527E-01   3.16864402304527E-01   0.00000000000000E+00   0.00000000000000E+00
      3.76772217749202E-16   1.09534373456320E-21   3.76773313092937E-16   5.42324742292067E-16
      4.56731553360768E-01
      0.00000000000000E+00   0.00000000000000E+00   0.00000000000000E+00   0.00000000000000E+00  -3.83949368243267E-16
     -1.18959867442090E-20  -3.83961264230012E-16   4.08534452779011E-16  -5.00000000000000E-01  -5.00000000000000E-01
      0.00000000000000E+00   0.00000000000000E+00   0.00000000000000E+00   0.00000000000000E+00   0.00000000000000E+00
     -9.54180864619026E-16   3.25144771818930E-01   3.25144771818930E-01   0.00000000000000E+00   0.00000000000000E+00
      3.83957135346934E-16   1.13274375923727E-21   3.83958268090694E-16   5.45796301322866E-16
      4.79932588715135E-01
      0.00000000000000E+00   0.00000000000000E+00   0.00000000000000E+00   0.00000000000000E+00  -3.98157439016589E-16
     -1.53107157182071E-20  -3.98172749732308E-16   4.08491772167499E-16  -5.00000000000000E-01  -5.00000000000000E-01
      0.00000000000000E+00   0.00000000000000E+00   0.00000000000000E+00   0.00000000000000E+00   0.00000000000000E+00
     -9.60850287042545E-16   3.41153486213443E-01   3.41153486213443E-01   0.00000000000000E+00   0.00000000000000E+00
      3.98165542385989E-16   1.09929464171686E-21   3.98166641680631E-16   5.52507801727027E-16
      5.03133624069502E-01
      0.00000000000000E+00   0.00000000000000E+00   0.00000000000000E+00   0.00000000000000E+00  -4.12794204102502E-16
     -9.85347598698357E-21  -4.12804057578489E-16   4.08449105399491E-16  -5.00000000000000E-01  -5.00000000000000E-01
      0.00000000000000E+00   0.00000000000000E+00   0.00000000000000E+00   0.00000000000000E+00   0.00000000000000E+00
     -9.67519313558120E-16   3.57162200607956E-01   3.57162200607956E-01   0.00000000000000E+00   0.00000000000000E+00
      4.12802634044619E-16   1.18112621499333E-21   4.12803815170834E-16   5.59219069174758E-16
      5.22467820198141E-01
      0.00000000000000E+00   0.00000000000000E+00   0.00000000000000E+00   0.00000000000000E+00  -4.25327065313505E-16
     -1.52407584365412E-20  -4.25342306071941E-16   4.08413558604372E-16  -5.00000000000000E-01  -5.00000000000000E-01
      0.00000000000000E+00   0.00000000000000E+00   0.00000000000000E+00   0.00000000000000E+00   0.00000000000000E+00
     -9.73076565527159E-16   3.70502795936717E-01   3.70502795936717E-01   0.00000000000000E+00   0.00000000000000E+00
      4.25335771509631E-16   1.13198162762303E-21   4.25336903491258E-16   5.64811620940805E-16
      5.49535694778235E-01
      0.00000000000000E+00   0.00000000000000E+00   0.00000000000000E+00   0.00000000000000E+00  -4.43399824738539E-16
     -1.23439732414275E-20  -4.43412168711780E-16   4.08363798987147E-16  -5.00000000000000E-01  -5.00000000000000E-01
      0.00000000000000E+00   0.00000000000000E+00   0.00000000000000E+00   0.00000000000000E+00   0.00000000000000E+00
     -9.80856422928587E-16   3.89179629396982E-01   3.89179629396982E-01   0.00000000000000E+00   0.00000000000000E+00
      4.43408916725085E-16   1.16852964354683E-21   4.43410085254728E-16   5.72640938943673E-16
      5.82017144274349E-01
      0.00000000000000E+00   0.00000000000000E+00   0.00000000000000E+00   0.00000000000000E+00  -4.65922102616159E-16
     -1.11744362495353E-20  -4.65933277052409E-16   4.08304092737084E-16  -5.00000000000000E-01  -5.00000000000000E-01
      0.00000000000000E+00   0.00000000000000E+00   0.00000000000000E+00   0.00000000000000E+00   0.00000000000000E+00
     -9.90191866515289E-16   4.11591829549301E-01   4.11591829549301E-01   0.00000000000000E+00   0.00000000000000E+00
      4.65931673387731E-16   1.18272965938378E-21   4.65932856117391E-16   5.82035746300957E-16
      6.33987463468130E-01
      0.00000000000000E+00   0.00000000000000E+00   0.00000000000000E+00   0.00000000000000E+00  -5.03930999239443E-16
     -1.56302216467278E-20  -5.03946629461090E-16   4.08208562964453E-16  -5.00000000000000E-01  -5.00000000000000E-01
      0.00000000000000E+00   0.00000000000000E+00   0.00000000000000E+00   0.00000000000000E+00   0.00000000000000E+00
     -1.00512791130732E-15   4.47451349793010E-01   4.47451349793010E-01   0.00000000000000E+00   0.00000000000000E+00
      5.03941379768957E-16   1.17033440277794E-21   5.03942550103360E-16   5.97066640440241E-16
      6.85957782661912E-01
      0.00000000000000E+00   0.00000000000000E+00   0.00000000000000E+00   0.00000000000000E+00  -5.44487691418054E-16
     -1.32891590913886E-20  -5.44500980577145E-16   4.08113033784118E-16  -5.00000000000000E-01  -5.00000000000000E-01
      0.00000000000000E+00   0.00000000000000E+00   0.00000000000000E+00   0.00000000000000E+00   0.00000000000000E+00
     -1.02006319540014E-15   4.83310870036719E-01   4.83310870036719E-01   0.00000000000000E+00   0.00000000000000E+00
      5.44498936108221E-16   1.18461476985143E-21   5.44500120722991E-16   6.12096633683164E-16
      7.20604662124433E-01
      0.00000000000000E+00   0.00000000000000E+00   0.00000000000000E+00   0.00000000000000E+00  -5.73008668566737E-16
     -1.82650721406245E-20  -5.73026933638877E-16   4.08049356809571E-16  -5.00000000000000E-01  -5.00000000000000E-01
      0.00000000000000E+00   0.00000000000000E+00   0.00000000000000E+00   0.00000000000000E+00   0.00000000000000E+00
     -1.03001954206252E-15   5.07217216865858E-01   5.07217216865858E-01   0.00000000000000E+00   0.00000000000000E+00
      5.73020512723378E-16   1.17717080510733E-21   5.73021689894183E-16   6.22116174734084E-16
      7.50631957658617E-01
      0.00000000000000E+00   0.00000000000000E+00   0.00000000000000E+00   0.00000000000000E+00  -5.98724262769091E-16
     -1.73460445033494E-20  -5.98741608813594E-16   4.07994182606161E-16  -5.00000000000000E-01  -5.00000000000000E-01
      0.00000000000000E+00   0.00000000000000E+00   0.00000000000000E+00   0.00000000000000E+00   0.00000000000000E+00
     -1.03864797515192E-15   5.27936050784446E-01   5.27936050784446E-01   0.00000000000000E+00   0.00000000000000E+00
      5.98736628054001E-16   1.18211799077067E-21   5.98737810171992E-16   6.30799506387710E-16
      7.88666532001918E-01
      0.00000000000000E+00   0.00000000000000E+00   0.00000000000000E+00   0.00000000000000E+00  -6.32671589211865E-16
     -2.15588720469405E-20  -6.32693148083912E-16   4.07924322305562E-16  -5.00000000000000E-01  -5.00000000000000E-01
      0.00000000000000E+00   0.00000000000000E+00   0.00000000000000E+00   0.00000000000000E+00   0.00000000000000E+00
     -1.04957667249485E-15   5.54179907081324E-01   5.54179907081323E-01   0.00000000000000E+00   0.00000000000000E+00
      6.32684603865322E-16   1.18017761527372E-21   6.32685784042937E-16   6.41798058943872E-16
      8.44450574372093E-01
      0.00000000000000E+00   0.00000000000000E+00   0.00000000000000E+00   0.00000000000000E+00  -6.85352084457674E-16
     -2.33350618861014E-20  -6.85375419519560E-16   4.07821936069612E-16  -5.00000000000000E-01  -5.00000000000000E-01
      0.00000000000000E+00   0.00000000000000E+00   0.00000000000000E+00   0.00000000000000E+00   0.00000000000000E+00
     -1.06560388747978E-15   5.92670896316744E-01   5.92670896316744E-01   0.00000000000000E+00   0.00000000000000E+00
      6.85365987483043E-16   1.18330785279888E-21   6.85367170790896E-16   6.57928649171444E-16
      9.37423978322384E-01
      0.00000000000000E+00   0.00000000000000E+00   0.00000000000000E+00   0.00000000000000E+00  -7.81270399678529E-16
     -1.72546881934539E-20  -7.81287654366723E-16   4.07651536891916E-16  -5.00000000000000E-01  -5.00000000000000E-01
      0.00000000000000E+00   0.00000000000000E+00   0.00000000000000E+00   0.00000000000000E+00   0.00000000000000E+00
     -1.09231145497532E-15   6.56822545042445E-01   6.56822545042445E-01   0.00000000000000E+00   0.00000000000000E+00
      7.81285502492215E-16   1.18994838240651E-21   7.81286692440598E-16   6.84811495674981E-16
      1.00000000000000E+00
      0.00000000000000E+00   0.00000000000000E+00   0.00000000000000E+00   0.00000000000000E+00  -8.51955371950010E-16
     -1.72298512748824E-20  -8.51972601801285E-16   4.07537008962086E-16  -5.00000000000000E-01  -5.00000000000000E-01
      0.00000000000000E+00   0.00000000000000E+00   0.00000000000000E+00   0.00000000000000E+00   0.00000000000000E+00
     -1.11028423059582E-15   7.00000000000000E-01   7.00000000000000E-01   0.00000000000000E+00   0.00000000000000E+00
      8.51971054023587E-16   1.19099894352577E-21   8.51972245022531E-16   7.02904123579190E-16
}
