DF-ISE text

Info {
  version   = 1.0
  type      = xyplot
  datasets  = [
    "time"
    "Source OuterVoltage" "Source InnerVoltage" "Source QuasiFermiPotential" "Source DisplacementCurrent" "Source eCurrent"
    "Source hCurrent" "Source TotalCurrent" "Source Charge" "Gate OuterVoltage" "Gate InnerVoltage"
    "Gate QuasiFermiPotential" "Gate DisplacementCurrent" "Gate eCurrent" "Gate hCurrent" "Gate TotalCurrent"
    "Gate Charge" "Drain OuterVoltage" "Drain InnerVoltage" "Drain QuasiFermiPotential" "Drain DisplacementCurrent"
    "Drain eCurrent" "Drain hCurrent" "Drain TotalCurrent" "Drain Charge" ]
  functions = [
    Time
    OuterVoltage InnerVoltage QuasiFermiPotential DisplacementCurrent eCurrent
    hCurrent TotalCurrent Charge OuterVoltage InnerVoltage
    QuasiFermiPotential DisplacementCurrent eCurrent hCurrent TotalCurrent
    Charge OuterVoltage InnerVoltage QuasiFermiPotential DisplacementCurrent
    eCurrent hCurrent TotalCurrent Charge ]
}

Data {
      0.00000000000000E+00
      0.00000000000000E+00   0.00000000000000E+00   0.00000000000000E+00   0.00000000000000E+00   3.85849731107784E-27
      1.83302397577390E-25   1.87160894888468E-25   4.49690270258038E-16  -5.00000000000000E-01  -5.00000000000000E-01
      0.00000000000000E+00   0.00000000000000E+00   0.00000000000000E+00   0.00000000000000E+00   0.00000000000000E+00
     -8.99099041835690E-16   0.00000000000000E+00   0.00000000000000E+00   0.00000000000000E+00   0.00000000000000E+00
     -3.35686736647603E-27   2.26425328387968E-26   1.92856654723207E-26   4.49690270258038E-16
      2.50000000000000E-02
      0.00000000000000E+00   0.00000000000000E+00   0.00000000000000E+00   0.00000000000000E+00  -1.59257353107078E-26
     -3.46380006049885E-25  -3.62305741360593E-25   4.28692450537784E-16  -4.50000000000000E-01  -4.50000000000000E-01
      0.00000000000000E+00   0.00000000000000E+00   0.00000000000000E+00   0.00000000000000E+00   0.00000000000000E+00
     -8.57084783999866E-16   0.00000000000000E+00   0.00000000000000E+00   0.00000000000000E+00   0.00000000000000E+00
     -3.54037028177005E-27  -2.99108882377183E-25  -3.02649252658953E-25   4.28692450537782E-16
      5.00000000000000E-02
      0.00000000000000E+00   0.00000000000000E+00   0.00000000000000E+00   0.00000000000000E+00  -1.65551129072432E-21
     -5.15888985725554E-23  -1.70710018929688E-21   4.07649154587425E-16  -4.00000000000000E-01  -4.00000000000000E-01
      0.00000000000000E+00   0.00000000000000E+00   0.00000000000000E+00   0.00000000000000E+00   0.00000000000000E+00
     -8.14994834589338E-16   0.00000000000000E+00   0.00000000000000E+00   0.00000000000000E+00   0.00000000000000E+00
     -1.65150570932401E-21  -5.14910194691282E-23  -1.70299672879314E-21   4.07649154587425E-16
      7.50000000000000E-02
      0.00000000000000E+00   0.00000000000000E+00   0.00000000000000E+00   0.00000000000000E+00  -6.80092096735142E-21
      4.09250210310178E-24  -6.79682846524832E-21   3.86558147313927E-16  -3.50000000000000E-01  -3.50000000000000E-01
      0.00000000000000E+00   0.00000000000000E+00   0.00000000000000E+00   0.00000000000000E+00   0.00000000000000E+00
     -7.72812212708498E-16   0.00000000000000E+00   0.00000000000000E+00   0.00000000000000E+00   0.00000000000000E+00
     -6.78138517433279E-21   4.03400984543857E-24  -6.77735116448735E-21   3.86558147313925E-16
      1.00000000000000E-01
      0.00000000000000E+00   0.00000000000000E+00   0.00000000000000E+00   0.00000000000000E+00  -2.86966305946509E-20
      3.83141329593192E-24  -2.86927991813550E-20   3.65415085654577E-16  -3.00000000000000E-01  -3.00000000000000E-01
      0.00000000000000E+00   0.00000000000000E+00   0.00000000000000E+00   0.00000000000000E+00   0.00000000000000E+00
     -7.30525978346342E-16   0.00000000000000E+00   0.00000000000000E+00   0.00000000000000E+00   0.00000000000000E+00
     -2.86161433133290E-20   3.82049718684775E-24  -2.86123228161421E-20   3.65415085654577E-16
      1.25000000000000E-01
      0.00000000000000E+00   0.00000000000000E+00   0.00000000000000E+00   0.00000000000000E+00  -1.31935464841602E-19
      1.52704929567070E-24  -1.31933937792307E-19   3.44213367499644E-16  -2.50000000000000E-01  -2.50000000000000E-01
      0.00000000000000E+00   0.00000000000000E+00   0.00000000000000E+00   0.00000000000000E+00   0.00000000000000E+00
     -6.88122518851597E-16   0.00000000000000E+00   0.00000000000000E+00   0.00000000000000E+00   0.00000000000000E+00
     -1.31569565642049E-19   1.52213956086630E-24  -1.31568043502488E-19   3.44213367499644E-16
      1.50000000000000E-01
      0.00000000000000E+00   0.00000000000000E+00   0.00000000000000E+00   0.00000000000000E+00  -6.79811980039906E-19
      5.56041208923317E-25  -6.79811423998697E-19   3.22943531291369E-16  -2.00000000000000E-01  -2.00000000000000E-01
      0.00000000000000E+00   0.00000000000000E+00   0.00000000000000E+00   0.00000000000000E+00   0.00000000000000E+00
     -6.45582832029508E-16   0.00000000000000E+00   0.00000000000000E+00   0.00000000000000E+00   0.00000000000000E+00
     -6.77961430252526E-19   5.54730692773385E-25  -6.77960875521833E-19   3.22943531291369E-16
      1.75000000000000E-01
      0.00000000000000E+00   0.00000000000000E+00   0.00000000000000E+00   0.00000000000000E+00  -3.92934425129864E-18
      1.48094695572121E-25  -3.92934410320394E-18   3.01592556944923E-16  -1.50000000000000E-01  -1.50000000000000E-01
      0.00000000000000E+00   0.00000000000000E+00   0.00000000000000E+00   0.00000000000000E+00   0.00000000000000E+00
     -6.02880845754041E-16   0.00000000000000E+00   0.00000000000000E+00   0.00000000000000E+00   0.00000000000000E+00
     -3.92039165312235E-18   1.47864122887227E-25  -3.92039150525823E-18   3.01592556944923E-16
      2.00000000000000E-01
      0.00000000000000E+00   0.00000000000000E+00   0.00000000000000E+00   0.00000000000000E+00   6.36526359973986E-23
     -1.78691746417769E-30   6.36526342104812E-23   2.80143146333927E-16  -1.00000000000000E-01  -1.00000000000000E-01
      0.00000000000000E+00   0.00000000000000E+00   0.00000000000000E+00   0.00000000000000E+00   0.00000000000000E+00
     -5.59981897112685E-16   0.00000000000000E+00   0.00000000000000E+00   0.00000000000000E+00   0.00000000000000E+00
     -4.27179063744145E-22   9.86971519229673E-31  -4.27179062757173E-22   2.80143146333927E-16
      2.25000000000000E-01
      0.00000000000000E+00   0.00000000000000E+00   0.00000000000000E+00   0.00000000000000E+00  -1.94721572872834E-22
      7.23597192861855E-31  -1.94721572149236E-22   2.58572917961499E-16  -5.00000000000000E-02  -5.00000000000000E-02
      0.00000000000000E+00   0.00000000000000E+00   0.00000000000000E+00   0.00000000000000E+00   0.00000000000000E+00
     -5.16840999370422E-16   0.00000000000000E+00   0.00000000000000E+00   0.00000000000000E+00   0.00000000000000E+00
     -1.19194319926526E-21  -7.87226940752725E-31  -1.19194320005249E-21   2.58572917961499E-16
      2.50000000000000E-01
      0.00000000000000E+00   0.00000000000000E+00   0.00000000000000E+00   0.00000000000000E+00   2.95181786087181E-21
      2.75754670324771E-31   2.95181786114757E-21   2.36853217267308E-16  -5.55111512312578E-17  -5.55111512312578E-17
      0.00000000000000E+00   0.00000000000000E+00   0.00000000000000E+00   0.00000000000000E+00   0.00000000000000E+00
     -4.73400061901024E-16   0.00000000000000E+00   0.00000000000000E+00   0.00000000000000E+00   0.00000000000000E+00
      7.95345234594212E-21   1.48254185364824E-30   7.95345234742467E-21   2.36853217267307E-16
      2.75000000000000E-01
      0.00000000000000E+00   0.00000000000000E+00   0.00000000000000E+00   0.00000000000000E+00   1.23034127487603E-20
      1.42871504289210E-31   1.23034127489031E-20   2.14946936949838E-16   4.99999999999999E-02   5.00000000000000E-02
      0.00000000000000E+00   0.00000000000000E+00   0.00000000000000E+00   0.00000000000000E+00   0.00000000000000E+00
     -4.29582114197909E-16   0.00000000000000E+00   0.00000000000000E+00   0.00000000000000E+00   0.00000000000000E+00
      8.67189855814982E-21   7.97153754921241E-32   8.67189855822954E-21   2.14946936949839E-16
      3.00000000000000E-01
      0.00000000000000E+00   0.00000000000000E+00   0.00000000000000E+00   0.00000000000000E+00  -1.70249941413853E-20
     -2.03744988218484E-32  -1.70249941414057E-20   1.92804643959547E-16   1.00000000000000E-01   1.00000000000000E-01
      0.00000000000000E+00   0.00000000000000E+00   0.00000000000000E+00   0.00000000000000E+00   0.00000000000000E+00
     -3.85278485703044E-16   0.00000000000000E+00   0.00000000000000E+00   0.00000000000000E+00   0.00000000000000E+00
     -1.63375173152812E-20   8.66847950334247E-32  -1.63375173151945E-20   1.92804643959546E-16
      3.25000000000000E-01
      0.00000000000000E+00   0.00000000000000E+00   0.00000000000000E+00   0.00000000000000E+00   7.71121256379365E-20
     -3.79256884400285E-34   7.71121256379361E-20   1.70359238781607E-16   1.50000000000000E-01   1.50000000000000E-01
      0.00000000000000E+00   0.00000000000000E+00   0.00000000000000E+00   0.00000000000000E+00   0.00000000000000E+00
     -3.40319812088197E-16   0.00000000000000E+00   0.00000000000000E+00   0.00000000000000E+00   0.00000000000000E+00
     -1.90832104141773E-20  -4.37831173262563E-33  -1.90832104141816E-20   1.70359238781607E-16
      3.50000000000000E-01
      0.00000000000000E+00   0.00000000000000E+00   0.00000000000000E+00   0.00000000000000E+00  -9.04971218240251E-20
      4.89710246411174E-33  -9.04971218240202E-20   1.47523734447297E-16   2.00000000000000E-01   2.00000000000000E-01
      0.00000000000000E+00   0.00000000000000E+00   0.00000000000000E+00   0.00000000000000E+00   0.00000000000000E+00
     -2.94405607433831E-16   0.00000000000000E+00   0.00000000000000E+00   0.00000000000000E+00   0.00000000000000E+00
      1.69785834994807E-19   2.26114835133555E-33   1.69785834994810E-19   1.47523734447296E-16
      3.75000000000000E-01
      0.00000000000000E+00   0.00000000000000E+00   0.00000000000000E+00   0.00000000000000E+00   1.30337133378454E-21
      2.01401205129378E-34   1.30337133378475E-21   1.24211997659263E-16   2.50000000000000E-01   2.50000000000000E-01
      0.00000000000000E+00   0.00000000000000E+00   0.00000000000000E+00   0.00000000000000E+00   0.00000000000000E+00
     -2.46915033831174E-16   0.00000000000000E+00   0.00000000000000E+00   0.00000000000000E+00   0.00000000000000E+00
     -9.06850435771653E-20  -9.61817716414916E-34  -9.06850435771662E-20   1.24211997659263E-16
      4.00000000000000E-01
      0.00000000000000E+00   0.00000000000000E+00   0.00000000000000E+00   0.00000000000000E+00  -3.56320336821412E-18
      1.86754782455534E-32  -3.56320336821410E-18   1.00441352027780E-16   3.00000000000000E-01   3.00000000000000E-01
      0.00000000000000E+00   0.00000000000000E+00   0.00000000000000E+00   0.00000000000000E+00   0.00000000000000E+00
     -1.96397714727752E-16   0.00000000000000E+00   0.00000000000000E+00   0.00000000000000E+00   0.00000000000000E+00
     -5.21897332717546E-18   1.78479306712791E-32  -5.21897332717544E-18   1.00441352027780E-16
      4.25000000000000E-01
      0.00000000000000E+00   0.00000000000000E+00   0.00000000000000E+00   0.00000000000000E+00   8.95804616865623E-16
     -4.16030965541227E-31   8.95804616865623E-16   7.65759325321177E-17   3.50000000000000E-01   3.50000000000000E-01
      0.00000000000000E+00   0.00000000000000E+00   0.00000000000000E+00   0.00000000000000E+00   0.00000000000000E+00
     -1.39634958804889E-16   0.00000000000000E+00   0.00000000000000E+00   0.00000000000000E+00   0.00000000000000E+00
      9.02789983897577E-16  -4.15805946108268E-31   9.02789983897576E-16   7.65759325321175E-17
      4.50000000000000E-01
      0.00000000000000E+00   0.00000000000000E+00   0.00000000000000E+00   0.00000000000000E+00  -2.11282297363885E-18
     -8.42761384542443E-35  -2.11282297363885E-18   5.33675206020793E-17   4.00000000000000E-01   4.00000000000000E-01
      0.00000000000000E+00   0.00000000000000E+00   0.00000000000000E+00   0.00000000000000E+00   0.00000000000000E+00
     -7.20223892558602E-17   0.00000000000000E+00   0.00000000000000E+00   0.00000000000000E+00   0.00000000000000E+00
      8.06989624976046E-18   1.65979381917674E-34   8.06989624976046E-18   5.33675206020792E-17
      4.75000000000000E-01
      0.00000000000000E+00   0.00000000000000E+00   0.00000000000000E+00   0.00000000000000E+00  -3.35077966432400E-18
     -8.95986502068310E-35  -3.35077966432400E-18   3.12707344215808E-17   4.50000000000000E-01   4.50000000000000E-01
      0.00000000000000E+00   0.00000000000000E+00   0.00000000000000E+00   0.00000000000000E+00   0.00000000000000E+00
      8.55006457643826E-18   0.00000000000000E+00   0.00000000000000E+00   0.00000000000000E+00   0.00000000000000E+00
      9.95615119316945E-18   1.32809781394274E-34   9.95615119316945E-18   3.12707344215808E-17
      5.00000000000000E-01
      0.00000000000000E+00   0.00000000000000E+00   0.00000000000000E+00   0.00000000000000E+00  -6.79001263630962E-13
     -1.94640467359025E-29  -6.79001263630962E-13   1.01444470426131E-17   5.00000000000000E-01   5.00000000000001E-01
      0.00000000000000E+00   0.00000000000000E+00   0.00000000000000E+00   0.00000000000000E+00   0.00000000000000E+00
      1.00439640485047E-16   0.00000000000000E+00   0.00000000000000E+00   0.00000000000000E+00   0.00000000000000E+00
     -6.79016607113024E-13  -1.94639709492379E-29  -6.79016607113024E-13   1.01444470426130E-17
      5.25000000000000E-01
      0.00000000000000E+00   0.00000000000000E+00   0.00000000000000E+00   0.00000000000000E+00  -2.58853922459706E-14
     -6.09377396388386E-31  -2.58853922459706E-14  -1.03169821555940E-17   5.50000000000000E-01   5.50000000000000E-01
      0.00000000000000E+00   0.00000000000000E+00   0.00000000000000E+00   0.00000000000000E+00   0.00000000000000E+00
      2.00928658100419E-16   0.00000000000000E+00   0.00000000000000E+00   0.00000000000000E+00   0.00000000000000E+00
     -2.58882866025633E-14  -6.09382773392787E-31  -2.58882866025633E-14  -1.03169821555941E-17
      5.50000000000000E-01
      0.00000000000000E+00   0.00000000000000E+00   0.00000000000000E+00   0.00000000000000E+00  -9.07374545002766E-16
     -1.75720088489491E-32  -9.07374545002766E-16  -3.03566931315926E-17   6.00000000000000E-01   6.00000000000000E-01
      0.00000000000000E+00   0.00000000000000E+00   0.00000000000000E+00   0.00000000000000E+00   0.00000000000000E+00
      3.07650954033010E-16   0.00000000000000E+00   0.00000000000000E+00   0.00000000000000E+00   0.00000000000000E+00
     -9.31328916809969E-16  -1.76233996664601E-32  -9.31328916809969E-16  -3.03566931315926E-17
      5.75000000000000E-01
      0.00000000000000E+00   0.00000000000000E+00   0.00000000000000E+00   0.00000000000000E+00  -5.71287423310797E-18
     -6.29732329890785E-34  -5.71287423310797E-18  -5.01367777079639E-17   6.50000000000000E-01   6.50000000000000E-01
      0.00000000000000E+00   0.00000000000000E+00   0.00000000000000E+00   0.00000000000000E+00   0.00000000000000E+00
      4.18834659610787E-16   0.00000000000000E+00   0.00000000000000E+00   0.00000000000000E+00   0.00000000000000E+00
      4.57103601298535E-18  -5.87476119169793E-34   4.57103601298535E-18  -5.01367777079639E-17
      6.00000000000000E-01
      0.00000000000000E+00   0.00000000000000E+00   0.00000000000000E+00   0.00000000000000E+00  -9.26926747017245E-17
     -5.97223976497781E-35  -9.26926747017245E-17  -6.97593075892229E-17   7.00000000000000E-01   7.00000000000000E-01
      0.00000000000000E+00   0.00000000000000E+00   0.00000000000000E+00   0.00000000000000E+00   0.00000000000000E+00
      5.33237887904558E-16   0.00000000000000E+00   0.00000000000000E+00   0.00000000000000E+00   0.00000000000000E+00
     -9.08237255508802E-18  -7.05053145769150E-35  -9.08237255508802E-18  -6.97593075892229E-17
      6.25000000000000E-01
      0.00000000000000E+00   0.00000000000000E+00   0.00000000000000E+00   0.00000000000000E+00   4.02996368687163E-17
      1.84312781579635E-35   4.02996368687163E-17  -8.92869725570035E-17   7.50000000000000E-01   7.50000000000000E-01
      0.00000000000000E+00   0.00000000000000E+00   0.00000000000000E+00   0.00000000000000E+00   0.00000000000000E+00
      6.50013302923170E-16   0.00000000000000E+00   0.00000000000000E+00   0.00000000000000E+00   0.00000000000000E+00
      8.54698918610935E-17   4.63182050595811E-35   8.54698918610935E-17  -8.92869725570033E-17
      6.50000000000000E-01
      0.00000000000000E+00   0.00000000000000E+00   0.00000000000000E+00   0.00000000000000E+00   6.07470720645245E-17
      2.99359367508270E-35   6.07470720645245E-17  -1.08757968297744E-16   8.00000000000000E-01   8.00000000000000E-01
      0.00000000000000E+00   0.00000000000000E+00   0.00000000000000E+00   0.00000000000000E+00   0.00000000000000E+00
      7.68582806700115E-16   0.00000000000000E+00   0.00000000000000E+00   0.00000000000000E+00   0.00000000000000E+00
     -7.85592122702981E-17  -3.00701215504253E-35  -7.85592122702981E-17  -1.08757968297744E-16
      6.75000000000000E-01
      0.00000000000000E+00   0.00000000000000E+00   0.00000000000000E+00   0.00000000000000E+00   2.01048229044145E-16
      8.66203992045774E-35   2.01048229044145E-16  -1.28195618053837E-16   8.50000000000000E-01   8.50000000000000E-01
      0.00000000000000E+00   0.00000000000000E+00   0.00000000000000E+00   0.00000000000000E+00   0.00000000000000E+00
      8.88545989264726E-16   0.00000000000000E+00   0.00000000000000E+00   0.00000000000000E+00   0.00000000000000E+00
      3.13619261005089E-17  -2.80727584399618E-35   3.13619261005089E-17  -1.28195618053837E-16
      7.00000000000000E-01
      0.00000000000000E+00   0.00000000000000E+00   0.00000000000000E+00   0.00000000000000E+00  -6.29737889151097E-17
     -4.85546318651518E-37  -6.29737889151097E-17  -1.47614265589024E-16   9.00000000000001E-01   9.00000000000000E-01
      0.00000000000000E+00   0.00000000000000E+00   0.00000000000000E+00   0.00000000000000E+00   0.00000000000000E+00
      1.00961939793823E-15   0.00000000000000E+00   0.00000000000000E+00   0.00000000000000E+00   0.00000000000000E+00
     -4.27779653284386E-17   3.85185271557714E-35  -4.27779653284386E-17  -1.47614265589024E-16
      7.25000000000000E-01
      0.00000000000000E+00   0.00000000000000E+00   0.00000000000000E+00   0.00000000000000E+00   1.78462967115631E-10
      5.08603443602753E-30   1.78462967115631E-10  -1.67022804014825E-16   9.50000000000001E-01   9.50000000000001E-01
      0.00000000000000E+00   0.00000000000000E+00   0.00000000000000E+00   0.00000000000000E+00   0.00000000000000E+00
      1.13159757854020E-15   0.00000000000000E+00   0.00000000000000E+00   0.00000000000000E+00   0.00000000000000E+00
      1.78468631170507E-10   5.08519822335813E-30   1.78468631170507E-10  -1.67022804014817E-16
      7.50000000000000E-01
      0.00000000000000E+00   0.00000000000000E+00   0.00000000000000E+00   0.00000000000000E+00   1.13286494003319E-10
      1.85449247313899E-30   1.13286494003319E-10  -1.86426780008457E-16   1.00000000000000E+00   1.00000000000000E+00
      0.00000000000000E+00   0.00000000000000E+00   0.00000000000000E+00   0.00000000000000E+00   0.00000000000000E+00
      1.25432815983018E-15   0.00000000000000E+00   0.00000000000000E+00   0.00000000000000E+00   0.00000000000000E+00
      1.13290725895047E-10   1.85406408756001E-30   1.13290725895047E-10  -1.86426780008452E-16
      7.75000000000000E-01
      0.00000000000000E+00   0.00000000000000E+00   0.00000000000000E+00   0.00000000000000E+00   7.17098293301807E-11
      7.62797263008957E-31   7.17098293301807E-11  -2.05829655832531E-16   1.05000000000000E+00   1.05000000000000E+00
      0.00000000000000E+00   0.00000000000000E+00   0.00000000000000E+00   0.00000000000000E+00   0.00000000000000E+00
      1.37769573985427E-15   0.00000000000000E+00   0.00000000000000E+00   0.00000000000000E+00   0.00000000000000E+00
      7.17128430189610E-11   7.62559901454274E-31   7.17128430189610E-11  -2.05829655832527E-16
      8.00000000000000E-01
      0.00000000000000E+00   0.00000000000000E+00   0.00000000000000E+00   0.00000000000000E+00   4.55450011855045E-11
      3.52938526748202E-31   4.55450011855045E-11  -2.25233574882127E-16   1.10000000000000E+00   1.10000000000000E+00
      0.00000000000000E+00   0.00000000000000E+00   0.00000000000000E+00   0.00000000000000E+00   0.00000000000000E+00
      1.50161127804619E-15   0.00000000000000E+00   0.00000000000000E+00   0.00000000000000E+00   0.00000000000000E+00
      4.55474731938269E-11   3.52833685115977E-31   4.55474731938269E-11  -2.25233574882124E-16
      8.25000000000000E-01
      0.00000000000000E+00   0.00000000000000E+00   0.00000000000000E+00   0.00000000000000E+00   2.90958110693827E-11
      1.82035734371972E-31   2.90958110693827E-11  -2.44639832073339E-16   1.15000000000000E+00   1.15000000000000E+00
      0.00000000000000E+00   0.00000000000000E+00   0.00000000000000E+00   0.00000000000000E+00   0.00000000000000E+00
      1.62600497468460E-15   0.00000000000000E+00   0.00000000000000E+00   0.00000000000000E+00   0.00000000000000E+00
      2.90976255230120E-11   1.81967310734456E-31   2.90976255230120E-11  -2.44639832073337E-16
      8.50000000000000E-01
      0.00000000000000E+00   0.00000000000000E+00   0.00000000000000E+00   0.00000000000000E+00   1.86932043411789E-11
      1.03247347207375E-31   1.86932043411789E-11  -2.64049166757691E-16   1.20000000000000E+00   1.20000000000000E+00
      0.00000000000000E+00   0.00000000000000E+00   0.00000000000000E+00   0.00000000000000E+00   0.00000000000000E+00
      1.75082139603806E-15   0.00000000000000E+00   0.00000000000000E+00   0.00000000000000E+00   0.00000000000000E+00
      1.86941993602764E-11   1.03188852145844E-31   1.86941993602764E-11  -2.64049166757689E-16
      8.75000000000000E-01
      0.00000000000000E+00   0.00000000000000E+00   0.00000000000000E+00   0.00000000000000E+00   1.20455777434306E-11
      6.17675035870287E-32   1.20455777434306E-11  -2.83461950928344E-16   1.25000000000000E+00   1.25000000000000E+00
      0.00000000000000E+00   0.00000000000000E+00   0.00000000000000E+00   0.00000000000000E+00   0.00000000000000E+00
      1.87601584223468E-15   0.00000000000000E+00   0.00000000000000E+00   0.00000000000000E+00   0.00000000000000E+00
      1.20456992992981E-11   6.17098363431102E-32   1.20456992992981E-11  -2.83461950928343E-16
      9.00000000000000E-01
      0.00000000000000E+00   0.00000000000000E+00   0.00000000000000E+00   0.00000000000000E+00   7.75612371483656E-12
      3.65748449127732E-32   7.75612371483656E-12  -3.02878468338644E-16   1.30000000000000E+00   1.30000000000000E+00
      0.00000000000000E+00   0.00000000000000E+00   0.00000000000000E+00   0.00000000000000E+00   0.00000000000000E+00
      2.00154777380691E-15   0.00000000000000E+00   0.00000000000000E+00   0.00000000000000E+00   0.00000000000000E+00
      7.75655908087777E-12   3.65791912852752E-32   7.75655908087777E-12  -3.02878468338643E-16
      9.25000000000000E-01
      0.00000000000000E+00   0.00000000000000E+00   0.00000000000000E+00   0.00000000000000E+00   7.03202968973219E-12
      2.37952508018800E-32   7.03202968973219E-12  -3.22299262404849E-16   1.35000000000000E+00   1.35000000000000E+00
      0.00000000000000E+00   0.00000000000000E+00   0.00000000000000E+00   0.00000000000000E+00   0.00000000000000E+00
      2.12737867610411E-15   0.00000000000000E+00   0.00000000000000E+00   0.00000000000000E+00   0.00000000000000E+00
      7.03276801512453E-12   2.37278178617003E-32   7.03276801512453E-12  -3.22299262404848E-16
      9.50000000000001E-01
      0.00000000000000E+00   0.00000000000000E+00   0.00000000000000E+00   0.00000000000000E+00   5.98809057988993E-12
      1.68636162684971E-32   5.98809057988993E-12  -3.41725019384052E-16   1.40000000000000E+00   1.40000000000000E+00
      0.00000000000000E+00   0.00000000000000E+00   0.00000000000000E+00   0.00000000000000E+00   0.00000000000000E+00
      2.25348071562709E-15   0.00000000000000E+00   0.00000000000000E+00   0.00000000000000E+00   0.00000000000000E+00
      5.98842340441569E-12   1.68224941319166E-32   5.98842340441569E-12  -3.41725019384051E-16
      9.75000000000001E-01
      0.00000000000000E+00   0.00000000000000E+00   0.00000000000000E+00   0.00000000000000E+00   4.19630985219203E-12
      1.22853517697689E-32   4.19630985219203E-12  -3.61155880104953E-16   1.45000000000000E+00   1.45000000000000E+00
      0.00000000000000E+00   0.00000000000000E+00   0.00000000000000E+00   0.00000000000000E+00   0.00000000000000E+00
      2.37983112472686E-15   0.00000000000000E+00   0.00000000000000E+00   0.00000000000000E+00   0.00000000000000E+00
      4.19737998397715E-12   1.22222208706399E-32   4.19737998397715E-12  -3.61155880104952E-16
      1.00000000000000E+00
      0.00000000000000E+00   0.00000000000000E+00   0.00000000000000E+00   0.00000000000000E+00   2.68562496257524E-12
      8.94260878622703E-33   2.68562496257524E-12  -3.80591198482856E-16   1.50000000000000E+00   1.50000000000000E+00
      0.00000000000000E+00   0.00000000000000E+00   0.00000000000000E+00   0.00000000000000E+00   0.00000000000000E+00
      2.50641046979775E-15   0.00000000000000E+00   0.00000000000000E+00   0.00000000000000E+00   0.00000000000000E+00
      2.68536099107124E-12   8.97375027220255E-33   2.68536099107124E-12  -3.80591198482855E-16
}
