DF-ISE text

Info {
  version   = 1.0
  type      = xyplot
  datasets  = [
    "frequency"
    "v(G)" "v(D)" "v(S)" "a(G,G)" "c(G,G)"
    "a(G,D)" "c(G,D)" "a(G,S)" "c(G,S)" "a(D,G)"
    "c(D,G)" "a(D,D)" "c(D,D)" "a(D,S)" "c(D,S)"
    "a(S,G)" "c(S,G)" "a(S,D)" "c(S,D)" "a(S,S)"
    "c(S,S)" ]
  functions = [
    Frequency
    Voltage Voltage Voltage Admittance Capacitance
    Admittance Capacitance Admittance Capacitance Admittance
    Capacitance Admittance Capacitance Admittance Capacitance
    Admittance Capacitance Admittance Capacitance Admittance
    Capacitance ]
}

Data {
      1.00000000000000E+04
     -5.00000000000000E-01   0.00000000000000E+00   0.00000000000000E+00  -4.70953443076077E-12   8.39091627968086E-16
     -5.30893593303758E-19  -4.19545813984083E-16  -5.37264057858087E-19  -4.19545813984087E-16  -1.46522902341929E-17
     -4.19545813984007E-16  -1.51920465508412E-13   4.22321512361155E-16  -1.05960265623404E-14  -2.77569837707597E-18
     -6.06239032085892E-17  -4.19545813988412E-16  -1.05961820539719E-14  -2.77569837525404E-18   4.55761396525235E-13
      4.22321512341129E-16
      1.00000000000000E+04
     -4.50000000000000E-01   0.00000000000000E+00   0.00000000000000E+00  -4.70953443076077E-12   8.40831768878494E-16
     -4.78186277684718E-19  -4.20415884439213E-16  -4.77322046774081E-19  -4.20415884439204E-16   2.07482894226828E-17
     -4.20415884439255E-16   1.51920465508412E-13   4.23211990325369E-16  -5.59312088193005E-14  -2.79610588614536E-18
     -2.14292295035235E-16  -4.20415884437454E-16  -5.59339919946684E-14  -2.79610588603425E-18  -7.59602327542059E-13
      4.23211990321602E-16
      1.00000000000000E+04
     -4.00000000000000E-01   0.00000000000000E+00   0.00000000000000E+00  -4.70953443076077E-12   8.42666728067172E-16
     -3.86188255186139E-19  -4.21333364033591E-16  -3.86909660167104E-19  -4.21333364033589E-16  -1.15402611101058E-16
     -4.21333364033558E-16   4.55761396525235E-13   4.24151453437737E-16  -2.94895261960899E-13  -2.81808940416837E-18
      1.99306055706518E-16  -4.21333364033307E-16  -2.94890864806290E-13  -2.81808940416025E-18   1.06344325855888E-12
      4.24151453437489E-16
      1.00000000000000E+04
     -3.50000000000000E-01   0.00000000000000E+00   0.00000000000000E+00  -4.70953443076077E-12   8.44646120477624E-16
     -3.05748550673147E-19  -4.22323060238803E-16  -3.05918766427390E-19  -4.22323060238802E-16  -2.20489837990887E-16
     -4.22323060238800E-16   2.27880698262618E-12   4.25165107193200E-16  -1.55212367895184E-12  -2.84204695439776E-18
      1.64122319249516E-16  -4.22323060238792E-16  -1.55211897219695E-12  -2.84204695440534E-18   2.12688651711777E-12
      4.25165107193170E-16
      1.00000000000000E+04
     -3.00000000000000E-01   0.00000000000000E+00   0.00000000000000E+00  -4.70953443076077E-12   8.46843090570405E-16
     -2.69962549620200E-19  -4.23421545285168E-16  -2.70134305004817E-19  -4.23421545285222E-16   2.29855370323267E-16
     -4.23421545285176E-16   8.50754606847106E-12   4.26290424772830E-16  -8.15275732274670E-12  -2.86887948765928E-18
     -2.42969840881248E-16  -4.23421545285245E-16  -8.15276255166991E-12  -2.86887948765087E-18   8.35562560296265E-12
      4.26290424772885E-16
      1.00000000000000E+04
     -2.50000000000000E-01   0.00000000000000E+00   0.00000000000000E+00  -4.70953443076077E-12   8.49357227195306E-16
     -2.92724180844158E-19  -4.24678613597511E-16  -2.92884592566386E-19  -4.24678613597749E-16  -1.61413799131727E-16
     -4.24678613597515E-16   4.32973326698974E-11   4.27578491102841E-16  -4.27226870631706E-11  -2.89987750533793E-18
     -1.50283158483215E-16  -4.24678613597755E-16  -4.27226868109335E-11  -2.89987750533706E-18   4.29934917388805E-11
      4.27578491103064E-16
      1.00000000000000E+04
     -2.00000000000000E-01   0.00000000000000E+00   0.00000000000000E+00  -4.70953443076077E-12   8.52316504970897E-16
     -3.02867563491780E-19  -4.26158252484750E-16  -3.02996103987115E-19  -4.26158252486161E-16   3.01334326879102E-16
     -4.26158252484715E-16   2.23475004762874E-10   4.29094984891786E-16  -2.23254089281668E-10  -2.93673240708343E-18
      4.91644564072516E-17  -4.26158252486133E-16  -2.23254092793722E-10  -2.93673240707989E-18   2.22715402435332E-10
      4.29094984893245E-16
      1.00000000000000E+04
     -1.50000000000000E-01   0.00000000000000E+00   0.00000000000000E+00  -4.70953443076077E-12   8.55877926095070E-16
     -4.87305340843614E-20  -4.27938963046139E-16  -4.87475155694552E-20  -4.27938963048848E-16  -3.35829184262119E-17
     -4.27938963046140E-16   1.16310308393240E-09   4.30920536037197E-16  -1.16272909339709E-09  -2.98157299108807E-18
      4.82264083585565E-17  -4.27938963048848E-16  -1.16272909332761E-09  -2.98157299108807E-18   1.16264732253588E-09
      4.30920536039888E-16
      1.00000000000000E+04
     -1.00000000000000E-01   0.00000000000000E+00   0.00000000000000E+00  -4.70953443076077E-12   8.60229134696229E-16
     -6.05434382247466E-21  -4.30114567342472E-16  -6.05533029284357E-21  -4.30114567353732E-16   4.82777209967781E-17
     -4.30114567342472E-16   6.03093863975293E-09   4.33151592292750E-16  -6.03069254047693E-09  -3.03702495029693E-18
      2.81773051384272E-16  -4.30114567353732E-16  -6.03069253594820E-09  -3.03702495029702E-18   6.03109056021844E-09
      4.33151592304032E-16
      1.00000000000000E+04
     -5.00000000000000E-02   0.00000000000000E+00   0.00000000000000E+00  -4.70953443076077E-12   8.65598661084340E-16
     -3.28517119645348E-21  -4.32799330511146E-16  -3.28446529739980E-21  -4.32799330573203E-16  -4.29847832178593E-16
     -4.32799330511145E-16   3.11190843138121E-08   4.35905707392612E-16  -3.11193635716479E-08  -3.10637688148247E-18
     -4.80618818473200E-17  -4.32799330573203E-16  -3.11193635666489E-08  -3.10637688148250E-18   3.11193881547431E-08
      4.35905707454700E-16
      1.00000000000000E+04
     -5.55111512312578E-17   0.00000000000000E+00   0.00000000000000E+00  -4.70953443076077E-12   8.72291501604918E-16
     -3.09073627797606E-21  -4.36145750628473E-16  -3.08956032761034E-21  -4.36145750976380E-16   4.39994952563698E-17
     -4.36145750628472E-16   1.59546265195072E-07   4.39339591214200E-16  -1.59545629201783E-07  -3.19384058576284E-18
      2.81328694008448E-16  -4.36145750976380E-16  -1.59545629198008E-07  -3.19384058576286E-18   1.59545353672279E-07
      4.39339591562120E-16
      1.00000000000000E+04
      4.99999999999999E-02   0.00000000000000E+00   0.00000000000000E+00  -4.70953443076077E-12   8.80779943524110E-16
     -3.14526800956557E-21  -4.40389970790779E-16  -3.14390830428261E-21  -4.40389972733322E-16   1.94296221077992E-16
     -4.40389970790779E-16   8.11171121877027E-07   4.43693934730266E-16  -8.11170841969957E-07  -3.30396393950818E-18
     -4.08606556287090E-18  -4.40389972733321E-16  -8.11170841972332E-07  -3.30396393950818E-18   8.11171577638424E-07
      4.43693936672851E-16
      1.00000000000000E+04
      1.00000000000000E-01   0.00000000000000E+00   0.00000000000000E+00  -4.70953443076077E-12   8.91909277427765E-16
     -3.24030956986316E-21  -4.45954633334562E-16  -3.23877135984812E-21  -4.45954644093147E-16  -1.34909608687104E-16
     -4.45954633334562E-16   4.07834211708736E-06   4.49388267530326E-16  -4.07834240515611E-06  -3.43363419579512E-18
     -1.39593285268131E-16  -4.45954644093147E-16  -4.07834240515638E-06  -3.43363419579511E-18   4.07834226900783E-06
      4.49388278288919E-16
      1.00000000000000E+04
      1.50000000000000E-01   0.00000000000000E+00   0.00000000000000E+00  -4.70953443076077E-12   9.07385329548668E-16
     -3.38144845058329E-21  -4.53692635305444E-16  -3.37968797400660E-21  -4.53692694243186E-16   1.46077638876436E-16
     -4.53692635305444E-16   2.01806737649465E-05   4.57212531958468E-16  -2.01806739913463E-05  -3.51989665304705E-18
      3.39971093155450E-16  -4.53692694243187E-16  -2.01806739913445E-05  -3.51989665304707E-18   2.01806739168670E-05
      4.57212590896238E-16
      1.00000000000000E+04
      2.00000000000000E-01   0.00000000000000E+00   0.00000000000000E+00  -4.70953443076077E-12   9.31099885687583E-16
     -3.62148589848456E-21  -4.65549783883380E-16  -3.61942965487469E-21  -4.65550101804138E-16  -2.88813328197630E-16
     -4.65549783883379E-16   9.73729286261036E-05   4.68703991464953E-16  -9.73729286327442E-05  -3.15420758160385E-18
      1.55568769765283E-16  -4.65550101804138E-16  -9.73729286327382E-05  -3.15420758160388E-18   9.73729286261036E-05
      4.68704309385717E-16
      1.00000000000000E+04
      2.50000000000000E-01   0.00000000000000E+00   0.00000000000000E+00  -4.70953443076077E-12   9.72993189289170E-16
     -4.12788094668327E-21  -4.86495758397491E-16  -4.12540468697048E-21  -4.86497430891661E-16   2.15553441523131E-16
     -4.86495758397491E-16   4.48399138435388E-04   4.86689240944930E-16  -4.48399138265929E-04  -1.93482547461435E-19
      1.43831254902356E-16  -4.86497430891661E-16  -4.48399138265931E-04  -1.93482547461417E-19   4.48399138891150E-04
      4.86690913439135E-16
      1.00000000000000E+04
      3.00000000000000E-01   0.00000000000000E+00   0.00000000000000E+00  -4.70953443076077E-12   1.05827243343775E-15
     -5.44420291034243E-21  -5.29132046500099E-16  -5.44115021167424E-21  -5.29140386937615E-16   1.68662924757430E-16
     -5.29132046500099E-16   1.86594861983704E-03   5.14653566706707E-16  -1.86594861948276E-03   1.44784797933822E-17
     -2.97903537030800E-18  -5.29140386937615E-16  -1.86594861948277E-03   1.44784797933822E-17   1.86594861983704E-03
      5.14661907144205E-16
      1.00000000000000E+04
      3.50000000000000E-01   0.00000000000000E+00   0.00000000000000E+00  -4.70953443076077E-12   1.22939312910015E-15
     -8.80029174001164E-21  -6.14678583282912E-16  -8.79691877354422E-21  -6.14714545817209E-16  -4.89007398125069E-17
     -6.14678583282913E-16   6.23317521417916E-03   5.50420407021007E-16  -6.23317521315712E-03   6.42581762619006E-17
     -2.73353770951168E-16  -6.14714545817208E-16  -6.23317521315713E-03   6.42581762619006E-17   6.23317521341956E-03
      5.50456369555296E-16
      1.00000000000000E+04
      4.00000000000000E-01   0.00000000000000E+00   0.00000000000000E+00  -4.70953443076077E-12   1.48260258013753E-15
     -1.45304038127256E-20  -7.41244960457841E-16  -1.45286044988591E-20  -7.41357619679611E-16   2.50346493525936E-18
     -7.41244960457840E-16   1.46854331242314E-02   5.81485283184830E-16  -1.46854331243826E-02   1.59759677272965E-16
     -1.55638103691728E-16  -7.41357619679610E-16  -1.46854331243826E-02   1.59759677272965E-16   1.46854331242314E-02
      5.81597942406622E-16
      1.00000000000000E+04
      4.50000000000000E-01   0.00000000000000E+00   0.00000000000000E+00  -4.70953443076077E-12   1.73353455826180E-15
     -2.03480517478825E-20  -8.66647090019005E-16  -2.03505799646430E-20  -8.66887468242803E-16  -2.07637558789737E-16
     -8.66647090019003E-16   2.48546572944101E-02   6.03087216753930E-16  -2.48546572943898E-02   2.63559873265088E-16
     -2.93257900616482E-16  -8.66887468242800E-16  -2.48546572943898E-02   2.63559873265087E-16   2.48546572941062E-02
      6.03327594977712E-16
      1.00000000000000E+04
      5.00000000000000E-01   0.00000000000000E+00   0.00000000000000E+00  -4.70953443076077E-12   1.93261085866400E-15
     -2.47807851726599E-20  -9.66110841938675E-16  -2.47889746694397E-20  -9.66500016725267E-16  -5.09807594641315E-16
     -9.66110841938670E-16   3.41374672842413E-02   6.19976616058342E-16  -3.41374672842529E-02   3.46134225880308E-16
     -4.34482574052255E-16  -9.66500016725263E-16  -3.41374672842530E-02   3.46134225880309E-16   3.41374672834817E-02
      6.20365790844935E-16
      1.00000000000000E+04
      5.50000000000000E-01   0.00000000000000E+00   0.00000000000000E+00  -4.70953443076077E-12   2.07901552879162E-15
     -2.78434376312607E-20  -1.03924027853197E-15  -2.78572532588340E-20  -1.03977525025964E-15   1.32444309649466E-16
     -1.03924027853197E-15   4.17976723487434E-02   6.33981955494338E-16  -4.17976723483722E-02   4.05258323037633E-16
      1.05852010932103E-16  -1.03977525025964E-15  -4.17976723483723E-02   4.05258323037633E-16   4.17976723482876E-02
      6.34516927222005E-16
      1.00000000000000E+04
      6.00000000000000E-01   0.00000000000000E+00   0.00000000000000E+00  -4.70953443076077E-12   2.18399939720567E-15
     -2.98704626221625E-20  -1.09166589468172E-15  -2.98892872498670E-20  -1.09233350252395E-15  -4.52843868944887E-16
     -1.09166589468172E-15   4.79787898936949E-02   6.45103424659350E-16  -4.79787898936966E-02   4.46562470022380E-16
     -2.82589105732006E-16  -1.09233350252394E-15  -4.79787898936966E-02   4.46562470022379E-16   4.79787898938468E-02
      6.45771032501558E-16
      1.00000000000000E+04
      6.50000000000000E-01   0.00000000000000E+00   0.00000000000000E+00  -4.70953443076077E-12   2.25925799556454E-15
     -3.11853046809115E-20  -1.12923644670074E-15  -3.12084103605822E-20  -1.13002154886364E-15   1.70353218365607E-16
     -1.12923644670074E-15   5.29963035996408E-02   6.53639951935860E-16  -5.29963035997193E-02   4.75596494764808E-16
     -2.66809047532810E-16  -1.13002154886364E-15  -5.29963035997193E-02   4.75596494764808E-16   5.29963036002485E-02
      6.54425054098751E-16
      1.00000000000000E+04
      7.00000000000000E-01   0.00000000000000E+00   0.00000000000000E+00  -4.70953443076077E-12   2.31408929688621E-15
     -3.20356086536520E-20  -1.15660023913884E-15  -3.20623455938789E-20  -1.15748905774732E-15  -5.32081311724892E-16
     -1.15660023913884E-15   5.71317193005163E-02   6.60169116057135E-16  -5.71317193005483E-02   4.96431123081687E-16
     -2.62233710401285E-16  -1.15748905774732E-15  -5.71317193005483E-02   4.96431123081687E-16   5.71317193005163E-02
      6.61057934665611E-16
      1.00000000000000E+04
      7.50000000000000E-01   0.00000000000000E+00   0.00000000000000E+00  -4.70953443076077E-12   2.35503052691477E-15
     -3.25891779113258E-20  -1.17702477681194E-15  -3.26190187199444E-20  -1.17800575010278E-15  -9.11683602827684E-16
     -1.17702477681193E-15   6.05989087745382E-02   6.65242421649969E-16  -6.05989087747044E-02   5.11782355161945E-16
     -5.92041208179271E-16  -1.17800575010278E-15  -6.05989087747044E-02   5.11782355161946E-16   6.05989087745382E-02
      6.66223394940808E-16
      1.00000000000000E+04
      8.00000000000000E-01   0.00000000000000E+00   0.00000000000000E+00  -4.70953443076077E-12   2.38643469126905E-15
     -3.29530798708227E-20  -1.19268550807835E-15  -3.29856096451122E-20  -1.19374918319066E-15   5.88487922691443E-16
     -1.19268550807835E-15   6.35534082269569E-02   6.69279837763596E-16  -6.35534082268306E-02   5.23405670314742E-16
      4.05680677040190E-16  -1.19374918319066E-15  -6.35534082268307E-02   5.23405670314742E-16   6.35534082265012E-02
      6.70343512875904E-16
      1.00000000000000E+04
      8.50000000000000E-01   0.00000000000000E+00   0.00000000000000E+00  -4.70953443076077E-12   2.41116038412143E-15
     -3.31943108876610E-20  -1.20501085750917E-15  -3.32292044244752E-20  -1.20614952661212E-15  -1.55511043420600E-16
     -1.20501085750916E-15   6.61077517523802E-02   6.72575851556048E-16  -6.61077517526041E-02   5.32435005953061E-16
      7.25965011162076E-17  -1.20614952661212E-15  -6.61077517526041E-02   5.32435005953061E-16   6.61077517526841E-02
      6.73714520658994E-16
      1.00000000000000E+04
      9.00000000000001E-01   0.00000000000000E+00   0.00000000000000E+00  -4.70953443076077E-12   2.43109917640022E-15
     -3.33549219661295E-20  -1.21494592226014E-15  -3.33919222252553E-20  -1.21615325413991E-15   1.01378547378510E-15
     -1.21494592226015E-15   6.83441724754450E-02   6.75332147212014E-16  -6.83441724755836E-02   5.39613775048054E-16
      1.01133970395849E-15  -1.21615325413991E-15  -6.83441724755835E-02   5.39613775048053E-16   6.83441724749892E-02
      6.76539479091777E-16
      1.00000000000000E+04
      9.50000000000001E-01   0.00000000000000E+00   0.00000000000000E+00  -4.70953443076077E-12   2.44752535981547E-15
     -3.34616854896140E-20  -1.22312731228170E-15  -3.35005865975229E-20  -1.22439804753384E-15  -1.24743220481817E-15
     -1.22312731228169E-15   7.03237099932796E-02   6.77687267196591E-16  -7.03237099932087E-02   5.45440045085138E-16
     -2.95556146381479E-15  -1.22439804753382E-15  -7.03237099932078E-02   5.45440045085133E-16   7.03237099934315E-02
      6.78958002448729E-16
      1.00000000000000E+04
      1.00000000000000E+00   0.00000000000000E+00   0.00000000000000E+00  -4.70953443076077E-12   2.46131666298146E-15
     -3.35319777780571E-20  -1.22999347381053E-15  -3.35726124088930E-20  -1.23132318917060E-15   1.24553381543884E-15
     -1.22999347381054E-15   7.20924643171315E-02   6.79737860144885E-16  -7.20924643162982E-02   5.50255613665498E-16
      1.64943454846880E-15  -1.23132318917061E-15  -7.20924643162982E-02   5.50255613665497E-16   7.20924643163719E-02
      6.81067575504948E-16
      1.00000000000000E+04
      1.05000000000000E+00   0.00000000000000E+00   0.00000000000000E+00  -4.70953443076077E-12   2.47309205394494E-15
     -3.35773187611770E-20  -1.23585356181759E-15  -3.36195489495160E-20  -1.23723849212749E-15  -1.49434360670270E-15
     -1.23585356181758E-15   7.36858551288189E-02   6.81552799444377E-16  -7.36858551288633E-02   5.54300762373273E-16
     -1.37789432115239E-15  -1.23723849212748E-15  -7.36858551288635E-02   5.54300762373272E-16   7.36858551289708E-02
      6.82937729754276E-16
      1.00000000000000E+04
      1.10000000000000E+00   0.00000000000000E+00   0.00000000000000E+00  -4.70953443076077E-12   2.48329839824048E-15
     -3.36055156853412E-20  -1.24093074695625E-15  -3.36492261509703E-20  -1.24236765128362E-15  -2.49534694734557E-16
     -1.24093074695625E-15   7.51315410676845E-02   6.83182362493692E-16  -7.51315410675843E-02   5.57748384462256E-16
      5.26403503239060E-16  -1.24236765128362E-15  -7.51315410675847E-02   5.57748384462257E-16   7.51315410678364E-02
      6.84619266821052E-16
      1.00000000000000E+04
      1.15000000000000E+00   0.00000000000000E+00   0.00000000000000E+00  -4.70953443076077E-12   2.49226579922251E-15
     -3.36219804722573E-20  -1.24538986932958E-15  -3.36670737414187E-20  -1.24687592989308E-15  -1.42789294824889E-15
     -1.24538986932957E-15   7.64514461399555E-02   6.84664201496137E-16  -7.64514461395848E-02   5.60725667833514E-16
     -1.33097980554258E-15  -1.24687592989306E-15  -7.64514461395848E-02   5.60725667833513E-16   7.64514461398036E-02
      6.86150262059630E-16
      1.00000000000000E+04
      1.20000000000000E+00   0.00000000000000E+00   0.00000000000000E+00  -4.70953443076077E-12   2.50024362123008E-15
     -3.36305542962807E-20  -1.24935543797941E-15  -3.36769471028738E-20  -1.25088818325083E-15  -4.83852097634861E-16
     -1.24935543797941E-15   7.76631879672482E-02   6.86027271319197E-16  -7.76631879672944E-02   5.63328166660298E-16
     -9.47236220906060E-16  -1.25088818325082E-15  -7.76631879672944E-02   5.63328166660298E-16   7.76631879672482E-02
      6.87560016590604E-16
      1.00000000000000E+04
      1.25000000000000E+00   0.00000000000000E+00   0.00000000000000E+00  -4.70953443076077E-12   2.50739700674982E-15
     -3.36332391370826E-20  -1.25290989105833E-15  -3.36808585990436E-20  -1.25448711569159E-15  -4.06290861470764E-15
     -1.25290989105829E-15   7.87810994235935E-02   6.87287602623999E-16  -7.87810994235546E-02   5.65622288434351E-16
     -3.87732722320724E-15  -1.25448711569156E-15  -7.87810994235548E-02   5.65622288434352E-16   7.87810994238974E-02
      6.88864827257259E-16
      1.00000000000000E+04
      1.30000000000000E+00   0.00000000000000E+00   0.00000000000000E+00  -4.70953443076077E-12   2.51373549323051E-15
     -3.36280294550313E-20  -1.25605792518271E-15  -3.36768062899217E-20  -1.25767756804735E-15   7.11568487334844E-16
     -1.25605792518271E-15   7.98169582235980E-02   6.88428184871305E-16  -7.98169582236003E-02   5.67629740311193E-16
      7.53140395315704E-16  -1.25767756804735E-15  -7.98169582236004E-02   5.67629740311193E-16   7.98169582229903E-02
      6.90047827735943E-16
      1.00000000000000E+04
      1.35000000000000E+00   0.00000000000000E+00   0.00000000000000E+00  -4.70953443076077E-12   2.51941328546317E-15
     -3.36175134837516E-20  -1.25887652868198E-15  -3.36673874102755E-20  -1.26053675678073E-15  -1.68863664241328E-15
     -1.25887652868198E-15   8.07805521767173E-02   6.89472497878434E-16  -8.07805521764717E-02   5.69404030803322E-16
     -1.53159915913435E-15  -1.26053675678072E-15  -8.07805521764718E-02   5.69404030803322E-16   8.07805521764135E-02
      6.91132725977173E-16
      1.00000000000000E+04
      1.40000000000000E+00   0.00000000000000E+00   0.00000000000000E+00  -4.70953443076077E-12   2.52459353581177E-15
     -3.36048020617281E-20  -1.26144716872755E-15  -3.36557219727403E-20  -1.26314636708373E-15  -3.27341396766786E-15
     -1.26144716872752E-15   8.16801222424813E-02   6.90449448210394E-16  -8.16801222422961E-02   5.70997720516883E-16
     -3.38585238544404E-15  -1.26314636708371E-15  -8.16801222422964E-02   5.70997720516886E-16   8.16801222424813E-02
      6.92148646566574E-16
      1.00000000000000E+04
      1.45000000000000E+00   0.00000000000000E+00   0.00000000000000E+00  -4.70953443076077E-12   2.52935761416855E-15
     -3.35908812557543E-20  -1.26381045913022E-15  -3.36428015875058E-20  -1.26554715503798E-15   1.18809644932558E-15
     -1.26381045913023E-15   8.25226420012551E-02   6.91369912518271E-16  -8.25226420007185E-02   5.72440546611781E-16
      1.95750253842718E-15  -1.26554715503799E-15  -8.25226420007186E-02   5.72440546611781E-16   8.25226420004955E-02
      6.93106608426028E-16
      1.00000000000000E+04
      1.50000000000000E+00   0.00000000000000E+00   0.00000000000000E+00  -4.70953443076077E-12   2.53376109549089E-15
     -3.35761941928968E-20  -1.26599412896809E-15  -3.36290736250503E-20  -1.26776696652313E-15  -6.23480866367888E-15
     -1.26599412896805E-15   8.33140547802095E-02   6.92240168485903E-16  -8.33140547803176E-02   5.73753960482316E-16
     -5.80910351094393E-15  -1.26776696652308E-15  -8.33140547803177E-02   5.73753960482316E-16   8.33140547800576E-02
      6.94013006040939E-16
}
