DF-ISE text

Info {
  version   = 1.0
  type      = xyplot
  datasets  = [
    "time"
    "Source OuterVoltage" "Source InnerVoltage" "Source QuasiFermiPotential" "Source DisplacementCurrent" "Source eCurrent"
    "Source hCurrent" "Source TotalCurrent" "Source Charge" "Gate OuterVoltage" "Gate InnerVoltage"
    "Gate QuasiFermiPotential" "Gate DisplacementCurrent" "Gate eCurrent" "Gate hCurrent" "Gate TotalCurrent"
    "Gate Charge" "Drain OuterVoltage" "Drain InnerVoltage" "Drain QuasiFermiPotential" "Drain DisplacementCurrent"
    "Drain eCurrent" "Drain hCurrent" "Drain TotalCurrent" "Drain Charge" ]
  functions = [
    Time
    OuterVoltage InnerVoltage QuasiFermiPotential DisplacementCurrent eCurrent
    hCurrent TotalCurrent Charge OuterVoltage InnerVoltage
    QuasiFermiPotential DisplacementCurrent eCurrent hCurrent TotalCurrent
    Charge OuterVoltage InnerVoltage QuasiFermiPotential DisplacementCurrent
    eCurrent hCurrent TotalCurrent Charge ]
}

Data {
      0.00000000000000E+00
      0.00000000000000E+00   0.00000000000000E+00   0.00000000000000E+00   0.00000000000000E+00   9.38187298083718E-21
      1.53514710599254E-15   1.53515648786552E-15  -3.86289935023848E-16   5.00000000000000E-01   5.00000000000000E-01
      0.00000000000000E+00   0.00000000000000E+00   0.00000000000000E+00   0.00000000000000E+00   0.00000000000000E+00
      1.06770718102379E-15  -7.00000000000000E-01  -7.00000000000000E-01   0.00000000000000E+00   0.00000000000000E+00
     -7.89561924270078E-22  -1.53515568892332E-15  -1.53515647848525E-15  -6.81698284309472E-16
      2.50000000000000E-02
      0.00000000000000E+00   0.00000000000000E+00   0.00000000000000E+00   0.00000000000000E+00   1.01926540249779E-20
      8.07451148908184E-15   8.07452168173587E-15  -3.65417824671041E-16   4.50000000000000E-01   4.50000000000000E-01
      0.00000000000000E+00   0.00000000000000E+00   0.00000000000000E+00   0.00000000000000E+00   0.00000000000000E+00
      1.02599802116905E-15  -7.00000000000000E-01  -7.00000000000000E-01   0.00000000000000E+00   0.00000000000000E+00
     -7.89121442678932E-22  -8.07452089160906E-15  -8.07452168073050E-15  -6.60879901255930E-16
      5.00000000000000E-02
      0.00000000000000E+00   0.00000000000000E+00   0.00000000000000E+00   0.00000000000000E+00   1.32920058162869E-20
      4.24227266527533E-14   4.24227399447592E-14  -3.44533089087466E-16   4.00000000000000E-01   4.00000000000000E-01
      0.00000000000000E+00   0.00000000000000E+00   0.00000000000000E+00   0.00000000000000E+00   0.00000000000000E+00
      9.84289773535607E-16  -7.00000000000000E-01  -7.00000000000000E-01   0.00000000000000E+00   0.00000000000000E+00
     -7.88674297854220E-22  -4.24227391558973E-14  -4.24227399445716E-14  -6.40059846903466E-16
      7.50000000000000E-02
      0.00000000000000E+00  -1.83689474415054E-16   0.00000000000000E+00   0.00000000000000E+00   1.72312671750049E-20
      2.22494130803492E-13   2.22494148034759E-13  -3.23633941711229E-16   3.50000000000000E-01   3.50000000000000E-01
      0.00000000000000E+00   0.00000000000000E+00   0.00000000000000E+00   0.00000000000000E+00   0.00000000000000E+00
      9.42568509049977E-16  -7.00000000000000E-01  -7.00000000000000E-01   0.00000000000000E+00   0.00000000000000E+00
     -7.88221900595946E-22  -2.22494147197147E-13  -2.22494147985369E-13  -6.19238537103216E-16
      1.00000000000000E-01
      0.00000000000000E+00  -1.19398158369785E-15   0.00000000000000E+00   0.00000000000000E+00   1.87747550088182E-20
      1.16441288156402E-12   1.16441290033877E-12  -3.02717095178600E-16   3.00000000000000E-01   3.00000000000000E-01
      0.00000000000000E+00   0.00000000000000E+00   0.00000000000000E+00   0.00000000000000E+00   0.00000000000000E+00
      9.00828863097650E-16  -7.00000000000000E-01  -6.99999999999999E-01   0.00000000000000E+00   0.00000000000000E+00
     -7.87764078346751E-22  -1.16441289955102E-12  -1.16441290033879E-12  -5.98415935952120E-16
      1.25000000000000E-01
      0.00000000000000E+00  -6.06175265569677E-15   0.00000000000000E+00   0.00000000000000E+00   1.50223053627328E-20
      6.07825371011686E-12   6.07825372513916E-12  -2.81778087492153E-16   2.50000000000000E-01   2.50000000000000E-01
      0.00000000000000E+00   0.00000000000000E+00   0.00000000000000E+00   0.00000000000000E+00   0.00000000000000E+00
      8.59065793387719E-16  -7.00000000000000E-01  -6.99999999999994E-01   0.00000000000000E+00   0.00000000000000E+00
     -7.87299330101180E-22  -6.07825372435195E-12  -6.07825372513925E-12  -5.77591918486123E-16
      1.50000000000000E-01
      0.00000000000000E+00  -3.15945895993892E-14   0.00000000000000E+00   0.00000000000000E+00   1.38174480716898E-20
      3.16302408120118E-11   3.16302408258292E-11  -2.60810916036921E-16   2.00000000000000E-01   2.00000000000000E-01
      0.00000000000000E+00   0.00000000000000E+00   0.00000000000000E+00   0.00000000000000E+00   0.00000000000000E+00
      8.17273007565367E-16  -7.00000000000000E-01  -6.99999999999968E-01   0.00000000000000E+00   0.00000000000000E+00
     -7.86826483808666E-22  -3.16302408250450E-11  -3.16302408258319E-11  -5.56766319367590E-16
      1.75000000000000E-01
      0.00000000000000E+00  -1.63942855915435E-13   0.00000000000000E+00   0.00000000000000E+00   1.75113193116512E-20
      1.63974223866914E-10   1.63974223884425E-10  -2.39807342863629E-16   1.50000000000000E-01   1.50000000000000E-01
      0.00000000000000E+00   0.00000000000000E+00   0.00000000000000E+00   0.00000000000000E+00   0.00000000000000E+00
      7.75442022136839E-16  -7.00000000000000E-01  -6.99999999999836E-01   0.00000000000000E+00   0.00000000000000E+00
     -7.86343895698069E-22  -1.63974223883618E-10  -1.63974223884404E-10  -5.35938941805945E-16
      2.00000000000000E-01
      0.00000000000000E+00  -8.46073719155736E-13   0.00000000000000E+00   0.00000000000000E+00   1.74357123013166E-20
      8.46038506695357E-10   8.46038506712793E-10  -2.18755757294428E-16   1.00000000000000E-01   1.00000000000000E-01
      0.00000000000000E+00   0.00000000000000E+00   0.00000000000000E+00   0.00000000000000E+00   0.00000000000000E+00
      7.33560932435547E-16  -7.00000000000000E-01  -6.99999999999154E-01   0.00000000000000E+00   0.00000000000000E+00
     -7.85849773613589E-22  -8.46038506711938E-10  -8.46038506712724E-10  -5.15109562281071E-16
      2.25000000000000E-01
      0.00000000000000E+00  -4.33892907515798E-12   0.00000000000000E+00   0.00000000000000E+00   9.04825168442866E-21
      4.33886027568198E-09   4.33886027569103E-09  -1.97639311899652E-16   5.00000000000000E-02   5.00000000000000E-02
      0.00000000000000E+00   0.00000000000000E+00   0.00000000000000E+00   0.00000000000000E+00   0.00000000000000E+00
      6.91612401847034E-16  -7.00000000000000E-01  -6.99999999995661E-01   0.00000000000000E+00   0.00000000000000E+00
     -7.85342385789071E-22  -4.33886027365611E-09  -4.33886027365690E-09  -4.94277940529889E-16
      2.50000000000000E-01
      0.00000000000000E+00  -2.20747907430918E-11   0.00000000000000E+00   0.00000000000000E+00   3.02960305342735E-21
      2.20748242636421E-08   2.20748242636451E-08  -1.76432840428981E-16   5.55111512312578E-17   5.55111512312578E-17
      0.00000000000000E+00   0.00000000000000E+00   0.00000000000000E+00   0.00000000000000E+00   0.00000000000000E+00
      6.49570085011266E-16  -7.00000000000000E-01  -6.99999999977925E-01   0.00000000000000E+00   0.00000000000000E+00
     -7.84818988977637E-22  -2.20748242378561E-08  -2.20748242378569E-08  -4.73443841535295E-16
      2.75000000000000E-01
      0.00000000000000E+00  -1.11085015670920E-10   0.00000000000000E+00   0.00000000000000E+00   1.23276716810133E-21
      1.11084994147347E-07   1.11084994147349E-07  -1.55097823433706E-16  -4.99999999999999E-02  -5.00000000000000E-02
      0.00000000000000E+00   0.00000000000000E+00   0.00000000000000E+00   0.00000000000000E+00   0.00000000000000E+00
      6.07391655551110E-16  -7.00000000000000E-01  -6.99999999888915E-01   0.00000000000000E+00   0.00000000000000E+00
     -7.84280014869518E-22  -1.11084994147344E-07  -1.11084994147345E-07  -4.52607074669775E-16
      3.00000000000000E-01
      0.00000000000000E+00  -5.50108370207130E-10   0.00000000000000E+00   0.00000000000000E+00   8.67923457121480E-22
      5.50108416113499E-07   5.50108416113500E-07  -1.33574791588027E-16  -1.00000000000000E-01  -1.00000000000000E-01
      0.00000000000000E+00   0.00000000000000E+00   0.00000000000000E+00   0.00000000000000E+00   0.00000000000000E+00
      5.65003657927801E-16  -7.00000000000000E-01  -6.99999999449891E-01   0.00000000000000E+00   0.00000000000000E+00
     -7.83734203932290E-22  -5.50108416113505E-07  -5.50108416113506E-07  -4.31767517570926E-16
      3.25000000000000E-01
      0.00000000000000E+00  -2.65529637874354E-09   0.00000000000000E+00   0.00000000000000E+00   7.99212562174765E-22
      2.65529643609965E-06   2.65529643609965E-06  -1.11775234956575E-16  -1.50000000000000E-01  -1.50000000000000E-01
      0.00000000000000E+00   0.00000000000000E+00   0.00000000000000E+00   0.00000000000000E+00   0.00000000000000E+00
      5.22264950250668E-16  -7.00000000000000E-01  -6.99999997344704E-01   0.00000000000000E+00   0.00000000000000E+00
     -7.83235472395530E-22  -2.65529643609971E-06  -2.65529643609972E-06  -4.10924847454532E-16
      3.50000000000000E-01
      0.00000000000000E+00  -1.22430996501220E-08   0.00000000000000E+00   0.00000000000000E+00   7.86198054801002E-22
      1.22430996501493E-05   1.22430996501493E-05  -8.95884433223178E-17  -2.00000000000000E-01  -2.00000000000000E-01
      0.00000000000000E+00   0.00000000000000E+00   0.00000000000000E+00   0.00000000000000E+00   0.00000000000000E+00
      4.78875287705139E-16  -7.00000000000000E-01  -6.99999987756900E-01   0.00000000000000E+00   0.00000000000000E+00
     -7.83034653691671E-22  -1.22430996501492E-05  -1.22430996501492E-05  -3.90076515667458E-16
      3.75000000000000E-01
      0.00000000000000E+00  -5.16410928302717E-08   0.00000000000000E+00   0.00000000000000E+00   7.85264721083763E-22
      5.16410928618428E-05   5.16410928618428E-05  -6.69562113045802E-17  -2.50000000000000E-01  -2.50000000000000E-01
      0.00000000000000E+00   0.00000000000000E+00   0.00000000000000E+00   0.00000000000000E+00   0.00000000000000E+00
      4.34181774163902E-16  -7.00000000000000E-01  -6.99999948358907E-01   0.00000000000000E+00   0.00000000000000E+00
     -7.84107565777139E-22  -5.16410928618424E-05  -5.16410928618424E-05  -3.69208589710578E-16
      4.00000000000000E-01
      0.00000000000000E+00  -1.84786041980369E-07   0.00000000000000E+00   0.00000000000000E+00   7.91625719014932E-22
      1.84786041919866E-04   1.84786041919866E-04  -4.40671790470143E-17  -3.00000000000000E-01  -3.00000000000000E-01
      0.00000000000000E+00   0.00000000000000E+00   0.00000000000000E+00   0.00000000000000E+00   0.00000000000000E+00
      3.87003856938107E-16  -7.00000000000000E-01  -6.99999815213958E-01   0.00000000000000E+00   0.00000000000000E+00
     -7.89271523768667E-22  -1.84786041919814E-04  -1.84786041919814E-04  -3.48271459387731E-16
      4.25000000000000E-01
      0.00000000000000E+00  -5.21872237355514E-07   0.00000000000000E+00   0.00000000000000E+00   8.09972247079759E-22
      5.21872237289195E-04   5.21872237289195E-04  -2.14317851151106E-17  -3.50000000000000E-01  -3.50000000000000E-01
      0.00000000000000E+00   0.00000000000000E+00   0.00000000000000E+00   0.00000000000000E+00   0.00000000000000E+00
      3.36049679628875E-16  -7.00000000000000E-01  -6.99999478127762E-01   0.00000000000000E+00   0.00000000000000E+00
     -8.03481097577358E-22  -5.21872237292067E-04  -5.21872237292067E-04  -3.27162431291452E-16
      4.50000000000000E-01
      0.00000000000000E+00  -1.15697565161358E-06   0.00000000000000E+00   0.00000000000000E+00   8.45387591367960E-22
      1.15697565160591E-03   1.15697565160591E-03   4.86259412999053E-19  -4.00000000000000E-01  -4.00000000000000E-01
      0.00000000000000E+00   0.00000000000000E+00   0.00000000000000E+00   0.00000000000000E+00   0.00000000000000E+00
      2.80804836132856E-16  -7.00000000000000E-01  -6.99998843024348E-01   0.00000000000000E+00   0.00000000000000E+00
     -8.31306804470885E-22  -1.15697565160251E-03  -1.15697565160251E-03  -3.05769585095116E-16
      4.75000000000000E-01
      0.00000000000000E+00  -2.11776087901159E-06   0.00000000000000E+00   0.00000000000000E+00   8.99521314583544E-22
      2.11776087905454E-03   2.11776087905454E-03   2.15449425300158E-17  -4.50000000000000E-01  -4.50000000000000E-01
      0.00000000000000E+00   0.00000000000000E+00   0.00000000000000E+00   0.00000000000000E+00   0.00000000000000E+00
      2.21525290082559E-16  -7.00000000000000E-01  -6.99997882239121E-01   0.00000000000000E+00   0.00000000000000E+00
     -8.74867311972078E-22  -2.11776087905524E-03  -2.11776087905524E-03  -2.84028202491514E-16
      5.00000000000000E-01
      0.00000000000000E+00  -3.38428946807006E-06   0.00000000000000E+00   0.00000000000000E+00   9.71559624243264E-22
      3.38428946808527E-03   3.38428946808527E-03   4.18028427587848E-17  -5.00000000000000E-01  -5.00000000000001E-01
      0.00000000000000E+00   0.00000000000000E+00   0.00000000000000E+00   0.00000000000000E+00   0.00000000000000E+00
      1.58630396605545E-16  -7.00000000000000E-01  -6.99996615710532E-01   0.00000000000000E+00   0.00000000000000E+00
     -9.34546187002415E-22  -3.38428946808530E-03  -3.38428946808530E-03  -2.61919230826904E-16
      5.25000000000000E-01
      0.00000000000000E+00  -4.91941405058533E-06   0.00000000000000E+00   0.00000000000000E+00   1.05995489909986E-21
      4.91941405053007E-03   4.91941405053007E-03   6.13707380998918E-17  -5.50000000000000E-01  -5.50000000000000E-01
      0.00000000000000E+00   0.00000000000000E+00   0.00000000000000E+00   0.00000000000000E+00   0.00000000000000E+00
      9.24053934457819E-17  -7.00000000000000E-01  -6.99995080585949E-01   0.00000000000000E+00   0.00000000000000E+00
     -1.01010721641084E-21  -4.91941405053007E-03  -4.91941405053007E-03  -2.39445545656440E-16
      5.50000000000000E-01
      0.00000000000000E+00  -6.68322660963232E-06   0.00000000000000E+00   0.00000000000000E+00   1.16320327912061E-21
      6.68322660963163E-03   6.68322660963163E-03   8.03549479362853E-17  -6.00000000000000E-01  -6.00000000000000E-01
      0.00000000000000E+00   0.00000000000000E+00   0.00000000000000E+00   0.00000000000000E+00   0.00000000000000E+00
      2.29638444325280E-17  -7.00000000000000E-01  -6.99993316773390E-01   0.00000000000000E+00   0.00000000000000E+00
     -1.10113258406078E-21  -6.68322660963163E-03  -6.68322660963163E-03  -2.16617229802604E-16
      5.75000000000000E-01
      0.00000000000000E+00  -8.63725279818245E-06   0.00000000000000E+00   0.00000000000000E+00   1.27998516668167E-21
      8.63725279818934E-03   8.63725279818934E-03   9.88445149044447E-17  -6.50000000000000E-01  -6.50000000000000E-01
      0.00000000000000E+00   0.00000000000000E+00   0.00000000000000E+00   0.00000000000000E+00   0.00000000000000E+00
     -4.97302744782138E-17  -7.00000000000000E-01  -6.99991362747202E-01   0.00000000000000E+00   0.00000000000000E+00
     -1.20705450646100E-21  -8.63725279818931E-03  -8.63725279818931E-03  -1.93446508768402E-16
      6.00000000000000E-01
      0.00000000000000E+00  -1.07445696882816E-05   0.00000000000000E+00   0.00000000000000E+00   1.40903958396243E-21
      1.07445696883484E-02   1.07445696883484E-02   1.16911484776441E-16  -7.00000000000000E-01  -7.00000000000000E-01
      0.00000000000000E+00   0.00000000000000E+00   0.00000000000000E+00   0.00000000000000E+00   0.00000000000000E+00
     -1.25844656524197E-16  -7.00000000000000E-01  -6.99989255430312E-01   0.00000000000000E+00   0.00000000000000E+00
     -1.32703771759086E-21  -1.07445696883484E-02  -1.07445696883484E-02  -1.69948818901713E-16
      6.25000000000000E-01
      0.00000000000000E+00  -1.29684778525618E-05   0.00000000000000E+00   0.00000000000000E+00   1.54894571386093E-21
      1.29684778525904E-02   1.29684778525904E-02   1.34614454566975E-16  -7.50000000000000E-01  -7.50000000000000E-01
      0.00000000000000E+00   0.00000000000000E+00   0.00000000000000E+00   0.00000000000000E+00   0.00000000000000E+00
     -2.05671085748009E-16  -7.00000000000000E-01  -6.99987031522147E-01   0.00000000000000E+00   0.00000000000000E+00
     -1.45981750416220E-21  -1.29684778525904E-02  -1.29684778525904E-02  -1.46148888002980E-16
      6.50000000000000E-01
      0.00000000000000E+00  -1.52708013322994E-05   0.00000000000000E+00   0.00000000000000E+00   1.69789448905181E-21
      1.52708013322719E-02   1.52708013322719E-02   1.52002788390380E-16  -8.00000000000000E-01  -8.00000000000000E-01
      0.00000000000000E+00   0.00000000000000E+00   0.00000000000000E+00   0.00000000000000E+00   0.00000000000000E+00
     -2.89617194792229E-16  -7.00000000000000E-01  -6.99984729198668E-01   0.00000000000000E+00   0.00000000000000E+00
     -1.60354029453024E-21  -1.52708013322719E-02  -1.52708013322719E-02  -1.22091713875672E-16
      6.75000000000000E-01
      0.00000000000000E+00  -1.76106297346498E-05   0.00000000000000E+00   0.00000000000000E+00   1.85351884835772E-21
      1.76106297347014E-02   1.76106297347014E-02   1.69121057290084E-16  -8.50000000000000E-01  -8.50000000000000E-01
      0.00000000000000E+00   0.00000000000000E+00   0.00000000000000E+00   0.00000000000000E+00   0.00000000000000E+00
     -3.78174936373039E-16  -7.00000000000000E-01  -6.99982389370265E-01   0.00000000000000E+00   0.00000000000000E+00
     -1.75565839873703E-21  -1.76106297347014E-02  -1.76106297347014E-02  -9.78560340975533E-17
      7.00000000000000E-01
      0.00000000000000E+00  -1.99446560542147E-05   0.00000000000000E+00   0.00000000000000E+00   2.01287821684159E-21
      1.99446560541975E-02   1.99446560541975E-02   1.86013659773285E-16  -9.00000000000001E-01  -9.00000000000000E-01
      0.00000000000000E+00   0.00000000000000E+00   0.00000000000000E+00   0.00000000000000E+00   0.00000000000000E+00
     -4.71836306883938E-16  -7.00000000000000E-01  -6.99980055343946E-01   0.00000000000000E+00   0.00000000000000E+00
     -1.91296882423464E-21  -1.99446560541975E-02  -1.99446560541975E-02  -7.35615895408231E-17
      7.25000000000000E-01
      0.00000000000000E+00  -2.22302755849203E-05   0.00000000000000E+00   0.00000000000000E+00   2.17269881172093E-21
      2.22302755848769E-02   2.22302755848769E-02   2.02728900106929E-16  -9.50000000000001E-01  -9.50000000000001E-01
      0.00000000000000E+00   0.00000000000000E+00   0.00000000000000E+00   0.00000000000000E+00   0.00000000000000E+00
     -5.70948428645247E-16  -7.00000000000000E-01  -6.99977769724415E-01   0.00000000000000E+00   0.00000000000000E+00
     -2.07189898711102E-21  -2.22302755848769E-02  -2.22302755848769E-02  -4.93568028968574E-17
      7.50000000000000E-01
      0.00000000000000E+00  -2.44310731198264E-05   0.00000000000000E+00   0.00000000000000E+00   2.32985634747333E-21
      2.44310731198472E-02   2.44310731198472E-02   2.19320715929216E-16  -1.00000000000000E+00  -1.00000000000000E+00
      0.00000000000000E+00   0.00000000000000E+00   0.00000000000000E+00   0.00000000000000E+00   0.00000000000000E+00
     -6.75564589203357E-16  -7.00000000000000E-01  -6.99975568926880E-01   0.00000000000000E+00   0.00000000000000E+00
     -2.22902869838000E-21  -2.44310731198472E-02  -2.44310731198472E-02  -2.53837715411941E-17
      7.75000000000000E-01
      0.00000000000000E+00  -2.65218411917980E-05   0.00000000000000E+00   0.00000000000000E+00   2.48187847421717E-21
      2.65218411918472E-02   2.65218411918472E-02   2.35846542405248E-16  -1.05000000000000E+00  -1.05000000000000E+00
      0.00000000000000E+00   0.00000000000000E+00   0.00000000000000E+00   0.00000000000000E+00   0.00000000000000E+00
     -7.85392223891844E-16  -7.00000000000000E-01  -6.99973478158808E-01   0.00000000000000E+00   0.00000000000000E+00
     -2.38162421589048E-21  -2.65218411918473E-02  -2.65218411918473E-02  -1.74089382058029E-18
      8.00000000000000E-01
      0.00000000000000E+00  -2.84900856989784E-05   0.00000000000000E+00   0.00000000000000E+00   2.62719510501651E-21
      2.84900856990106E-02   2.84900856990106E-02   2.52362208034539E-16  -1.10000000000000E+00  -1.10000000000000E+00
      0.00000000000000E+00   0.00000000000000E+00   0.00000000000000E+00   0.00000000000000E+00   0.00000000000000E+00
     -8.99875767889258E-16  -7.00000000000000E-01  -6.99971509914301E-01   0.00000000000000E+00   0.00000000000000E+00
     -2.52790682567257E-21  -2.84900856990106E-02  -2.84900856990106E-02   2.15313361387322E-17
      8.25000000000000E-01
      0.00000000000000E+00  -3.03338597564888E-05   0.00000000000000E+00   0.00000000000000E+00   2.76507656346809E-21
      3.03338597564968E-02   3.03338597564968E-02   2.68916714767167E-16  -1.15000000000000E+00  -1.15000000000000E+00
      0.00000000000000E+00   0.00000000000000E+00   0.00000000000000E+00   0.00000000000000E+00   0.00000000000000E+00
     -1.01834501126688E-15  -7.00000000000000E-01  -6.99969666140244E-01   0.00000000000000E+00   0.00000000000000E+00
     -2.66699369590467E-21  -3.03338597564967E-02  -3.03338597564967E-02   4.44390949552658E-17
      8.50000000000000E-01
      0.00000000000000E+00  -3.20580704995045E-05   0.00000000000000E+00   0.00000000000000E+00   2.89540405581090E-21
      3.20580704994793E-02   3.20580704994793E-02   2.85549106792235E-16  -1.20000000000000E+00  -1.20000000000000E+00
      0.00000000000000E+00   0.00000000000000E+00   0.00000000000000E+00   0.00000000000000E+00   0.00000000000000E+00
     -1.14013974511339E-15  -7.00000000000000E-01  -6.99967941929500E-01   0.00000000000000E+00   0.00000000000000E+00
     -2.79866033043105E-21  -3.20580704994792E-02  -3.20580704994792E-02   6.70147378350068E-17
      8.75000000000000E-01
      0.00000000000000E+00  -3.36711708495974E-05   0.00000000000000E+00   0.00000000000000E+00   3.01842901538648E-21
      3.36711708495925E-02   3.36711708495925E-02   3.02287769972729E-16  -1.25000000000000E+00  -1.25000000000000E+00
      0.00000000000000E+00   0.00000000000000E+00   0.00000000000000E+00   0.00000000000000E+00   0.00000000000000E+00
     -1.26467663064609E-15  -7.00000000000000E-01  -6.99966328829150E-01   0.00000000000000E+00   0.00000000000000E+00
     -2.92308822993282E-21  -3.36711708495924E-02  -3.36711708495924E-02   8.93001371635093E-17
      9.00000000000000E-01
      0.00000000000000E+00  -3.51829162516659E-05   0.00000000000000E+00   0.00000000000000E+00   3.13459244137932E-21
      3.51829162006368E-02   3.51829162006368E-02   3.19151389918435E-16  -1.30000000000000E+00  -1.30000000000000E+00
      0.00000000000000E+00   0.00000000000000E+00   0.00000000000000E+00   0.00000000000000E+00   0.00000000000000E+00
     -1.39146947950137E-15  -7.00000000000000E-01  -6.99964817083748E-01   0.00000000000000E+00   0.00000000000000E+00
     -3.04067347138673E-21  -3.51829164292408E-02  -3.51829164292408E-02   1.11337132239446E-16
      9.25000000000000E-01
      0.00000000000000E+00  -3.66030832011469E-05   0.00000000000000E+00   0.00000000000000E+00   3.24441056181168E-21
      3.66030831699084E-02   3.66030831699084E-02   3.36150668419793E-16  -1.35000000000000E+00  -1.35000000000000E+00
      0.00000000000000E+00   0.00000000000000E+00   0.00000000000000E+00   0.00000000000000E+00   0.00000000000000E+00
     -1.52012467060702E-15  -7.00000000000000E-01  -6.99963396916799E-01   0.00000000000000E+00   0.00000000000000E+00
     -3.15190411327523E-21  -3.66030832895429E-02  -3.66030832895429E-02   1.33163340683914E-16
      9.50000000000001E-01
      0.00000000000000E+00  -3.79408350532578E-05   0.00000000000000E+00   0.00000000000000E+00   3.34840979093246E-21
      3.79408350353671E-02   3.79408350353671E-02   3.53290180598808E-16  -1.40000000000000E+00  -1.40000000000000E+00
      0.00000000000000E+00   0.00000000000000E+00   0.00000000000000E+00   0.00000000000000E+00   0.00000000000000E+00
     -1.65032727720497E-15  -7.00000000000000E-01  -6.99962059164946E-01   0.00000000000000E+00   0.00000000000000E+00
     -3.25728939465367E-21  -3.79408350981549E-02  -3.79408350981549E-02   1.54810940957873E-16
      9.75000000000001E-01
      0.00000000000000E+00  -3.92044649614250E-05   0.00000000000000E+00   0.00000000000000E+00   3.44709320535004E-21
      3.92044649517508E-02   3.92044649517508E-02   3.70570054007554E-16  -1.45000000000000E+00  -1.45000000000000E+00
      0.00000000000000E+00   0.00000000000000E+00   0.00000000000000E+00   0.00000000000000E+00   0.00000000000000E+00
     -1.78182581949754E-15  -7.00000000000000E-01  -6.99960795535039E-01   0.00000000000000E+00   0.00000000000000E+00
     -3.35732232194493E-21  -3.92044649848362E-02  -3.92044649848362E-02   1.76306813121647E-16
      1.00000000000000E+00
      0.00000000000000E+00  -4.04013389979306E-05   0.00000000000000E+00   0.00000000000000E+00   3.54092527327959E-21
      4.04013389931356E-02   4.04013389931356E-02   3.87987349189032E-16  -1.50000000000000E+00  -1.50000000000000E+00
      0.00000000000000E+00   0.00000000000000E+00   0.00000000000000E+00   0.00000000000000E+00   0.00000000000000E+00
     -1.91441875810006E-15  -7.00000000000000E-01  -6.99959598661002E-01   0.00000000000000E+00   0.00000000000000E+00
     -3.45246186766962E-21  -4.04013390105985E-02  -4.04013390105985E-02   1.97673181689501E-16
}
