DF-ISE text

Info {
  version   = 1.0
  type      = xyplot
  datasets  = [
    "time"
    "Source OuterVoltage" "Source InnerVoltage" "Source QuasiFermiPotential" "Source DisplacementCurrent" "Source eCurrent"
    "Source hCurrent" "Source TotalCurrent" "Source Charge" "Gate OuterVoltage" "Gate InnerVoltage"
    "Gate QuasiFermiPotential" "Gate DisplacementCurrent" "Gate eCurrent" "Gate hCurrent" "Gate TotalCurrent"
    "Gate Charge" "Drain OuterVoltage" "Drain InnerVoltage" "Drain QuasiFermiPotential" "Drain DisplacementCurrent"
    "Drain eCurrent" "Drain hCurrent" "Drain TotalCurrent" "Drain Charge" ]
  functions = [
    Time
    OuterVoltage InnerVoltage QuasiFermiPotential DisplacementCurrent eCurrent
    hCurrent TotalCurrent Charge OuterVoltage InnerVoltage
    QuasiFermiPotential DisplacementCurrent eCurrent hCurrent TotalCurrent
    Charge OuterVoltage InnerVoltage QuasiFermiPotential DisplacementCurrent
    eCurrent hCurrent TotalCurrent Charge ]
}

Data {
      0.00000000000000E+00
      0.00000000000000E+00   0.00000000000000E+00   0.00000000000000E+00   0.00000000000000E+00  -6.37195721390540E-26
     -5.86019514277904E-27  -6.95797672818331E-26  -4.25829744382717E-16   5.00000000000000E-01   5.00000000000000E-01
      0.00000000000000E+00   0.00000000000000E+00   0.00000000000000E+00   0.00000000000000E+00   0.00000000000000E+00
      8.51359686434830E-16   0.00000000000000E+00   0.00000000000000E+00   0.00000000000000E+00   0.00000000000000E+00
     -5.68654306818869E-26   1.61812328469934E-27  -5.52473073971876E-26  -4.25829744382717E-16
      2.50000000000000E-02
      0.00000000000000E+00   0.00000000000000E+00   0.00000000000000E+00   0.00000000000000E+00  -1.21647211006226E-25
     -1.97661631606379E-26  -1.41413374166864E-25  -4.04810304341371E-16   4.50000000000000E-01   4.50000000000000E-01
      0.00000000000000E+00   0.00000000000000E+00   0.00000000000000E+00   0.00000000000000E+00   0.00000000000000E+00
      8.09317190744587E-16   0.00000000000000E+00   0.00000000000000E+00   0.00000000000000E+00   0.00000000000000E+00
     -7.94852726698582E-26   1.86335127818938E-27  -7.76219213916689E-26  -4.04810304341370E-16
      5.00000000000000E-02
      0.00000000000000E+00   0.00000000000000E+00   0.00000000000000E+00   0.00000000000000E+00   6.90832363598405E-23
      2.27015627306276E-21   2.33923950942260E-21  -3.83742959933380E-16   4.00000000000000E-01   4.00000000000000E-01
      0.00000000000000E+00   0.00000000000000E+00   0.00000000000000E+00   0.00000000000000E+00   0.00000000000000E+00
      7.67181848208497E-16   0.00000000000000E+00   0.00000000000000E+00   0.00000000000000E+00   0.00000000000000E+00
      6.81624102761771E-23   2.26807316888796E-21   2.33623557916414E-21  -3.83742959933379E-16
      7.50000000000000E-02
      0.00000000000000E+00   0.00000000000000E+00   0.00000000000000E+00   0.00000000000000E+00  -3.90449412027912E-24
      9.58870016950165E-21   9.58479567538137E-21  -3.62623768633191E-16   3.50000000000000E-01   3.50000000000000E-01
      0.00000000000000E+00   0.00000000000000E+00   0.00000000000000E+00   0.00000000000000E+00   0.00000000000000E+00
      7.24943346277481E-16   0.00000000000000E+00   0.00000000000000E+00   0.00000000000000E+00   0.00000000000000E+00
     -3.94069926247477E-24   9.57763009499409E-21   9.57368939573162E-21  -3.62623768633190E-16
      1.00000000000000E-01
      0.00000000000000E+00   0.00000000000000E+00   0.00000000000000E+00   0.00000000000000E+00  -3.57943932014754E-24
      4.31149456560929E-20   4.31113662167728E-20  -3.41446772657514E-16   3.00000000000000E-01   3.00000000000000E-01
      0.00000000000000E+00   0.00000000000000E+00   0.00000000000000E+00   0.00000000000000E+00   0.00000000000000E+00
      6.82589329910703E-16   0.00000000000000E+00   0.00000000000000E+00   0.00000000000000E+00   0.00000000000000E+00
     -3.57448322738966E-24   4.30648189365296E-20   4.30612444533022E-20  -3.41446772657514E-16
      1.25000000000000E-01
      0.00000000000000E+00   0.00000000000000E+00   0.00000000000000E+00   0.00000000000000E+00  -1.25525340749562E-24
      2.13509492435869E-19   2.13508237182461E-19  -3.20203376353479E-16   2.50000000000000E-01   2.50000000000000E-01
      0.00000000000000E+00   0.00000000000000E+00   0.00000000000000E+00   0.00000000000000E+00   0.00000000000000E+00
      6.40102523576391E-16   0.00000000000000E+00   0.00000000000000E+00   0.00000000000000E+00   0.00000000000000E+00
     -1.25298497294230E-24   2.13276880959254E-19   2.13275627974281E-19  -3.20203376353479E-16
      1.50000000000000E-01
      0.00000000000000E+00   0.00000000000000E+00   0.00000000000000E+00   0.00000000000000E+00  -2.46309925350757E-25
      1.18432448094818E-18   1.18432423463826E-18  -2.98881576439406E-16   2.00000000000000E-01   2.00000000000000E-01
      0.00000000000000E+00   0.00000000000000E+00   0.00000000000000E+00   0.00000000000000E+00   0.00000000000000E+00
      5.97458889312892E-16   0.00000000000000E+00   0.00000000000000E+00   0.00000000000000E+00   0.00000000000000E+00
     -2.45587909194097E-25   1.18314940426111E-18   1.18314915867320E-18  -2.98881576439406E-16
      1.75000000000000E-01
      0.00000000000000E+00   0.00000000000000E+00   0.00000000000000E+00   0.00000000000000E+00   1.32028764867769E-29
      2.47544868862870E-22   2.47544882065746E-22  -2.77465123752044E-16   1.50000000000000E-01   1.50000000000000E-01
      0.00000000000000E+00   0.00000000000000E+00   0.00000000000000E+00   0.00000000000000E+00   0.00000000000000E+00
      5.54625867217820E-16   0.00000000000000E+00   0.00000000000000E+00   0.00000000000000E+00   0.00000000000000E+00
      9.68243474379096E-30   2.62428377422408E-22   2.62428387104843E-22  -2.77465123752043E-16
      2.00000000000000E-01
      0.00000000000000E+00   0.00000000000000E+00   0.00000000000000E+00   0.00000000000000E+00  -2.48561279641857E-30
     -3.44739321375212E-22  -3.44739323860824E-22  -2.55932576645417E-16   1.00000000000000E-01   1.00000000000000E-01
      0.00000000000000E+00   0.00000000000000E+00   0.00000000000000E+00   0.00000000000000E+00   0.00000000000000E+00
      5.11560367867442E-16   0.00000000000000E+00   0.00000000000000E+00   0.00000000000000E+00   0.00000000000000E+00
     -1.46976148818659E-30  -5.33876456310139E-22  -5.33876457779900E-22  -2.55932576645417E-16
      2.25000000000000E-01
      0.00000000000000E+00   0.00000000000000E+00   0.00000000000000E+00   0.00000000000000E+00   2.99338145919554E-30
      4.49667407535644E-22   4.49667410529025E-22  -2.34256013160638E-16   5.00000000000000E-02   5.00000000000000E-02
      0.00000000000000E+00   0.00000000000000E+00   0.00000000000000E+00   0.00000000000000E+00   0.00000000000000E+00
      4.68205824973066E-16   0.00000000000000E+00   0.00000000000000E+00   0.00000000000000E+00   0.00000000000000E+00
      2.71646492727019E-32  -3.33808641500065E-22  -3.33808641472901E-22  -2.34256013160637E-16
      2.50000000000000E-01
      0.00000000000000E+00   0.00000000000000E+00   0.00000000000000E+00   0.00000000000000E+00   6.66996678197267E-31
      2.24694591540560E-21   2.24694591607260E-21  -2.12398875924020E-16   5.55111512312578E-17   5.55111512312578E-17
      0.00000000000000E+00   0.00000000000000E+00   0.00000000000000E+00   0.00000000000000E+00   0.00000000000000E+00
      4.24486566477111E-16   0.00000000000000E+00   0.00000000000000E+00   0.00000000000000E+00   0.00000000000000E+00
     -4.86793639011966E-31   1.52291183784288E-21   1.52291183735609E-21  -2.12398875924019E-16
      2.75000000000000E-01
      0.00000000000000E+00   0.00000000000000E+00   0.00000000000000E+00   0.00000000000000E+00   1.15514007176023E-31
      7.24269291388261E-21   7.24269291399812E-21  -1.90312251706490E-16  -4.99999999999999E-02  -5.00000000000000E-02
      0.00000000000000E+00   0.00000000000000E+00   0.00000000000000E+00   0.00000000000000E+00   0.00000000000000E+00
      3.80295629572924E-16   0.00000000000000E+00   0.00000000000000E+00   0.00000000000000E+00   0.00000000000000E+00
      1.43909233979133E-32  -1.27221334149976E-20  -1.27221334149832E-20  -1.90312251706489E-16
      3.00000000000000E-01
      0.00000000000000E+00   0.00000000000000E+00   0.00000000000000E+00   0.00000000000000E+00  -5.28987690981433E-32
      9.19450042374824E-21   9.19450042369534E-21  -1.67929612096968E-16  -1.00000000000000E-01  -1.00000000000000E-01
      0.00000000000000E+00   0.00000000000000E+00   0.00000000000000E+00   0.00000000000000E+00   0.00000000000000E+00
      3.35467037868996E-16   0.00000000000000E+00   0.00000000000000E+00   0.00000000000000E+00   0.00000000000000E+00
      1.05954158754559E-32   3.16061159953261E-20   3.16061159953367E-20  -1.67929612096968E-16
      3.25000000000000E-01
      0.00000000000000E+00   0.00000000000000E+00   0.00000000000000E+00   0.00000000000000E+00   1.25212318124141E-33
      2.76149069083461E-21   2.76149069083586E-21  -1.45164038108675E-16  -1.50000000000000E-01  -1.50000000000000E-01
      0.00000000000000E+00   0.00000000000000E+00   0.00000000000000E+00   0.00000000000000E+00   0.00000000000000E+00
      2.89707905073096E-16   0.00000000000000E+00   0.00000000000000E+00   0.00000000000000E+00   0.00000000000000E+00
      5.12096059488189E-33  -8.50506190569024E-21  -8.50506190568512E-21  -1.45164038108675E-16
      3.50000000000000E-01
      0.00000000000000E+00   0.00000000000000E+00   0.00000000000000E+00   0.00000000000000E+00   5.99714930748400E-33
      1.54081524548138E-19   1.54081524548144E-19  -1.21926537808958E-16  -2.00000000000000E-01  -2.00000000000000E-01
      0.00000000000000E+00   0.00000000000000E+00   0.00000000000000E+00   0.00000000000000E+00   0.00000000000000E+00
      2.42415397717666E-16   0.00000000000000E+00   0.00000000000000E+00   0.00000000000000E+00   0.00000000000000E+00
      9.62020539920324E-35  -1.39313969288241E-19  -1.39313969288240E-19  -1.21926537808958E-16
      3.75000000000000E-01
      0.00000000000000E+00   0.00000000000000E+00   0.00000000000000E+00   0.00000000000000E+00  -4.32787142160961E-32
     -1.04758573445484E-18  -1.04758573445489E-18  -9.82227708052905E-17  -2.50000000000000E-01  -2.50000000000000E-01
      0.00000000000000E+00   0.00000000000000E+00   0.00000000000000E+00   0.00000000000000E+00   0.00000000000000E+00
      1.92180549231573E-16   0.00000000000000E+00   0.00000000000000E+00   0.00000000000000E+00   0.00000000000000E+00
     -4.45669710429630E-32  -7.18195641909121E-19  -7.18195641909165E-19  -9.82227708052904E-17
      4.00000000000000E-01
      0.00000000000000E+00   0.00000000000000E+00   0.00000000000000E+00   0.00000000000000E+00   6.06304810124235E-31
     -1.51458142635213E-16  -1.51458142635212E-16  -7.43937178495939E-17  -3.00000000000000E-01  -3.00000000000000E-01
      0.00000000000000E+00   0.00000000000000E+00   0.00000000000000E+00   0.00000000000000E+00   0.00000000000000E+00
      1.35843349898470E-16   0.00000000000000E+00   0.00000000000000E+00   0.00000000000000E+00   0.00000000000000E+00
      6.07576916398419E-31  -1.50762389869755E-16  -1.50762389869754E-16  -7.43937178495937E-17
      4.25000000000000E-01
      0.00000000000000E+00   0.00000000000000E+00   0.00000000000000E+00   0.00000000000000E+00   1.38063834606176E-36
      5.43656636896701E-19   5.43656636896701E-19  -5.11836467712305E-17  -3.50000000000000E-01  -3.50000000000000E-01
      0.00000000000000E+00   0.00000000000000E+00   0.00000000000000E+00   0.00000000000000E+00   0.00000000000000E+00
      6.87580405423182E-17   0.00000000000000E+00   0.00000000000000E+00   0.00000000000000E+00   0.00000000000000E+00
      1.05167068488186E-34   1.19126561941164E-19   1.19126561941164E-19  -5.11836467712304E-17
      4.50000000000000E-01
      0.00000000000000E+00   0.00000000000000E+00   0.00000000000000E+00   0.00000000000000E+00  -3.50062541632128E-34
     -6.00640563424631E-18  -6.00640563424631E-18  -2.90733233440695E-17  -4.00000000000000E-01  -4.00000000000000E-01
      0.00000000000000E+00   0.00000000000000E+00   0.00000000000000E+00   0.00000000000000E+00   0.00000000000000E+00
     -1.13607097240312E-17   0.00000000000000E+00   0.00000000000000E+00   0.00000000000000E+00   0.00000000000000E+00
     -3.73027359750624E-34  -4.72862026583193E-18  -4.72862026583193E-18  -2.90733233440694E-17
      4.75000000000000E-01
      0.00000000000000E+00   0.00000000000000E+00   0.00000000000000E+00   0.00000000000000E+00   6.00732772009615E-29
      3.12269773383825E-13   3.12269773383825E-13  -7.93942113182079E-18  -4.50000000000000E-01  -4.50000000000000E-01
      0.00000000000000E+00   0.00000000000000E+00   0.00000000000000E+00   0.00000000000000E+00   0.00000000000000E+00
     -1.02963741357354E-16   0.00000000000000E+00   0.00000000000000E+00   0.00000000000000E+00   0.00000000000000E+00
      6.00737988145223E-29   3.12307117722599E-13   3.12307117722599E-13  -7.93942113182057E-18
      5.00000000000000E-01
      0.00000000000000E+00   0.00000000000000E+00   0.00000000000000E+00   0.00000000000000E+00   1.95153261498037E-30
      1.26656683378611E-14   1.26656683378611E-14   1.25218512416223E-17  -5.00000000000000E-01  -5.00000000000001E-01
      0.00000000000000E+00   0.00000000000000E+00   0.00000000000000E+00   0.00000000000000E+00   0.00000000000000E+00
     -2.03338383043354E-16   0.00000000000000E+00   0.00000000000000E+00   0.00000000000000E+00   0.00000000000000E+00
      1.95162474865283E-30   1.26706887616556E-14   1.26706887616556E-14   1.25218512416224E-17
      5.25000000000000E-01
      0.00000000000000E+00   0.00000000000000E+00   0.00000000000000E+00   0.00000000000000E+00   5.72013799323679E-32
      4.47036484823682E-16   4.47036484823682E-16   3.25557619665093E-17  -5.50000000000000E-01  -5.50000000000000E-01
      0.00000000000000E+00   0.00000000000000E+00   0.00000000000000E+00   0.00000000000000E+00   0.00000000000000E+00
     -3.10097838577430E-16   0.00000000000000E+00   0.00000000000000E+00   0.00000000000000E+00   0.00000000000000E+00
      5.77512026385874E-32   4.64314520315404E-16   4.64314520315405E-16   3.25557619665093E-17
      5.50000000000000E-01
      0.00000000000000E+00   0.00000000000000E+00   0.00000000000000E+00   0.00000000000000E+00   1.68743716047185E-33
      7.17513187735750E-18   7.17513187735750E-18   5.23268652558300E-17  -6.00000000000000E-01  -6.00000000000000E-01
      0.00000000000000E+00   0.00000000000000E+00   0.00000000000000E+00   0.00000000000000E+00   0.00000000000000E+00
     -4.21440411863444E-16   0.00000000000000E+00   0.00000000000000E+00   0.00000000000000E+00   0.00000000000000E+00
      2.08713011239416E-33   2.15568368555196E-17   2.15568368555196E-17   5.23268652558301E-17
      5.75000000000000E-01
      0.00000000000000E+00   0.00000000000000E+00   0.00000000000000E+00   0.00000000000000E+00   2.77984545898579E-34
     -1.86308222510593E-17  -1.86308222510593E-17   7.19392563421754E-17  -6.50000000000000E-01  -6.50000000000000E-01
      0.00000000000000E+00   0.00000000000000E+00   0.00000000000000E+00   0.00000000000000E+00   0.00000000000000E+00
     -5.36094176954838E-16   0.00000000000000E+00   0.00000000000000E+00   0.00000000000000E+00   0.00000000000000E+00
      1.71494308349085E-34  -5.93759577252980E-18  -5.93759577252980E-18   7.19392563421752E-17
      6.00000000000000E-01
      0.00000000000000E+00   0.00000000000000E+00   0.00000000000000E+00   0.00000000000000E+00   2.96263483877055E-35
     -1.10174149004405E-17  -1.10174149004405E-17   9.14570154664688E-17  -7.00000000000000E-01  -7.00000000000000E-01
      0.00000000000000E+00   0.00000000000000E+00   0.00000000000000E+00   0.00000000000000E+00   0.00000000000000E+00
     -6.53186860876965E-16   0.00000000000000E+00   0.00000000000000E+00   0.00000000000000E+00   0.00000000000000E+00
     -8.94936214255844E-35  -1.78689800059844E-17  -1.78689800059844E-17   9.14570154664684E-17
      6.25000000000000E-01
      0.00000000000000E+00   0.00000000000000E+00   0.00000000000000E+00   0.00000000000000E+00  -4.67613507459724E-35
     -3.88924515796138E-17  -3.88924515796138E-17   1.10919165060191E-16  -7.50000000000000E-01  -7.50000000000000E-01
      0.00000000000000E+00   0.00000000000000E+00   0.00000000000000E+00   0.00000000000000E+00   0.00000000000000E+00
     -7.72121605887216E-16   0.00000000000000E+00   0.00000000000000E+00   0.00000000000000E+00   0.00000000000000E+00
      1.75269135117886E-34   1.93449627828874E-17   1.93449627828874E-17   1.10919165060191E-16
      6.50000000000000E-01
      0.00000000000000E+00   0.00000000000000E+00   0.00000000000000E+00   0.00000000000000E+00   1.75200310498432E-34
     -1.93605994006039E-17  -1.93605994006039E-17   1.30349449854260E-16  -8.00000000000000E-01  -8.00000000000000E-01
      0.00000000000000E+00   0.00000000000000E+00   0.00000000000000E+00   0.00000000000000E+00   0.00000000000000E+00
     -8.92484476333851E-16   0.00000000000000E+00   0.00000000000000E+00   0.00000000000000E+00   0.00000000000000E+00
      7.69668998650224E-35   2.69351181492733E-17   2.69351181492733E-17   1.30349449854260E-16
      6.75000000000000E-01
      0.00000000000000E+00   0.00000000000000E+00   0.00000000000000E+00   0.00000000000000E+00  -1.72846954287753E-34
     -4.41086486035404E-19  -4.41086486035404E-19   1.49762378018517E-16  -8.50000000000000E-01  -8.50000000000000E-01
      0.00000000000000E+00   0.00000000000000E+00   0.00000000000000E+00   0.00000000000000E+00   0.00000000000000E+00
     -1.01398238166112E-15   0.00000000000000E+00   0.00000000000000E+00   0.00000000000000E+00   0.00000000000000E+00
     -6.19148201365780E-35   1.25459477385392E-17   1.25459477385392E-17   1.49762378018517E-16
      7.00000000000000E-01
      0.00000000000000E+00   0.00000000000000E+00   0.00000000000000E+00   0.00000000000000E+00  -1.37279128432954E-29
     -6.66716626646078E-11  -6.66716626646078E-11   1.69166858059264E-16  -9.00000000000001E-01  -9.00000000000000E-01
      0.00000000000000E+00   0.00000000000000E+00   0.00000000000000E+00   0.00000000000000E+00   0.00000000000000E+00
     -1.13640296697008E-15   0.00000000000000E+00   0.00000000000000E+00   0.00000000000000E+00   0.00000000000000E+00
     -1.37275648706884E-29  -6.66727030055098E-11  -6.66727030055098E-11   1.69166858059261E-16
      7.25000000000000E-01
      0.00000000000000E+00   0.00000000000000E+00   0.00000000000000E+00   0.00000000000000E+00  -4.78315524294275E-30
     -4.29253481849037E-11  -4.29253481849037E-11   1.88568373177696E-16  -9.50000000000001E-01  -9.50000000000001E-01
      0.00000000000000E+00   0.00000000000000E+00   0.00000000000000E+00   0.00000000000000E+00   0.00000000000000E+00
     -1.25958884918859E-15   0.00000000000000E+00   0.00000000000000E+00   0.00000000000000E+00   0.00000000000000E+00
     -4.78313774161204E-30  -4.29261593285808E-11  -4.29261593285808E-11   1.88568373177693E-16
      7.50000000000000E-01
      0.00000000000000E+00   0.00000000000000E+00   0.00000000000000E+00   0.00000000000000E+00  -1.87106600346621E-30
     -2.74779204134828E-11  -2.74779204134828E-11   2.07970285923436E-16  -1.00000000000000E+00  -1.00000000000000E+00
      0.00000000000000E+00   0.00000000000000E+00   0.00000000000000E+00   0.00000000000000E+00   0.00000000000000E+00
     -1.38342091055755E-15   0.00000000000000E+00   0.00000000000000E+00   0.00000000000000E+00   0.00000000000000E+00
     -1.87082170523110E-30  -2.74787280659396E-11  -2.74787280659396E-11   2.07970285923434E-16
      7.75000000000000E-01
      0.00000000000000E+00   0.00000000000000E+00   0.00000000000000E+00   0.00000000000000E+00  -8.24407919276130E-31
     -1.76206846498791E-11  -1.76206846498791E-11   2.27374628545216E-16  -1.05000000000000E+00  -1.05000000000000E+00
      0.00000000000000E+00   0.00000000000000E+00   0.00000000000000E+00   0.00000000000000E+00   0.00000000000000E+00
     -1.50780728270001E-15   0.00000000000000E+00   0.00000000000000E+00   0.00000000000000E+00   0.00000000000000E+00
     -8.24259475144492E-31  -1.76211471657203E-11  -1.76211471657203E-11   2.27374628545215E-16
      8.00000000000000E-01
      0.00000000000000E+00   0.00000000000000E+00   0.00000000000000E+00   0.00000000000000E+00  -4.07915315099934E-31
     -1.13604118196741E-11  -1.13604118196741E-11   2.46782587311218E-16  -1.10000000000000E+00  -1.10000000000000E+00
      0.00000000000000E+00   0.00000000000000E+00   0.00000000000000E+00   0.00000000000000E+00   0.00000000000000E+00
     -1.63267594406551E-15   0.00000000000000E+00   0.00000000000000E+00   0.00000000000000E+00   0.00000000000000E+00
     -4.08075325889914E-31  -1.13606328857163E-11  -1.13606328857163E-11   2.46782587311217E-16
      8.25000000000000E-01
      0.00000000000000E+00   0.00000000000000E+00   0.00000000000000E+00   0.00000000000000E+00  -2.24549643995355E-31
     -7.37014021116048E-12  -7.37014021116048E-12   2.66194802967804E-16  -1.15000000000000E+00  -1.15000000000000E+00
      0.00000000000000E+00   0.00000000000000E+00   0.00000000000000E+00   0.00000000000000E+00   0.00000000000000E+00
     -1.75796964727516E-15   0.00000000000000E+00   0.00000000000000E+00   0.00000000000000E+00   0.00000000000000E+00
     -2.24547845106455E-31  -7.37035430985272E-12  -7.37035430985272E-12   2.66194802967803E-16
      8.50000000000000E-01
      0.00000000000000E+00   0.00000000000000E+00   0.00000000000000E+00   0.00000000000000E+00  -1.35054533684670E-31
     -4.80642648690528E-12  -4.80642648690528E-12   2.85611559180403E-16  -1.20000000000000E+00  -1.20000000000000E+00
      0.00000000000000E+00   0.00000000000000E+00   0.00000000000000E+00   0.00000000000000E+00   0.00000000000000E+00
     -1.88364237816868E-15   0.00000000000000E+00   0.00000000000000E+00   0.00000000000000E+00   0.00000000000000E+00
     -1.35072443780995E-31  -4.80666578296439E-12  -4.80666578296439E-12   2.85611559180402E-16
      8.75000000000000E-01
      0.00000000000000E+00   0.00000000000000E+00   0.00000000000000E+00   0.00000000000000E+00  -8.40955441561191E-32
     -3.14013074171583E-12  -3.14013074171583E-12   3.05032925985532E-16  -1.25000000000000E+00  -1.25000000000000E+00
      0.00000000000000E+00   0.00000000000000E+00   0.00000000000000E+00   0.00000000000000E+00   0.00000000000000E+00
     -2.00965591509394E-15   0.00000000000000E+00   0.00000000000000E+00   0.00000000000000E+00   0.00000000000000E+00
     -8.40793665761508E-32  -3.14042329862163E-12  -3.14042329862163E-12   3.05032925985531E-16
      9.00000000000000E-01
      0.00000000000000E+00   0.00000000000000E+00   0.00000000000000E+00   0.00000000000000E+00  -5.08510743784183E-32
     -2.34715901036424E-12  -2.34715901036424E-12   3.24459023500649E-16  -1.30000000000000E+00  -1.30000000000000E+00
      0.00000000000000E+00   0.00000000000000E+00   0.00000000000000E+00   0.00000000000000E+00   0.00000000000000E+00
     -2.13597406242785E-15   0.00000000000000E+00   0.00000000000000E+00   0.00000000000000E+00   0.00000000000000E+00
     -5.09267273050022E-32  -2.34727097670522E-12  -2.34727097670522E-12   3.24459023500649E-16
      9.25000000000000E-01
      0.00000000000000E+00   0.00000000000000E+00   0.00000000000000E+00   0.00000000000000E+00  -3.49827155878508E-32
     -2.11908203869553E-12  -2.11908203869553E-12   3.43890278204139E-16  -1.35000000000000E+00  -1.35000000000000E+00
      0.00000000000000E+00   0.00000000000000E+00   0.00000000000000E+00   0.00000000000000E+00   0.00000000000000E+00
     -2.26256393535864E-15   0.00000000000000E+00   0.00000000000000E+00   0.00000000000000E+00   0.00000000000000E+00
     -3.51487003296968E-32  -2.11915791161625E-12  -2.11915791161625E-12   3.43890278204138E-16
      9.50000000000001E-01
      0.00000000000000E+00   0.00000000000000E+00   0.00000000000000E+00   0.00000000000000E+00  -2.59672997055426E-32
     -1.72436414845815E-12  -1.72436414845815E-12   3.63327178836722E-16  -1.40000000000000E+00  -1.40000000000000E+00
      0.00000000000000E+00   0.00000000000000E+00   0.00000000000000E+00   0.00000000000000E+00   0.00000000000000E+00
     -2.38940189144207E-15   0.00000000000000E+00   0.00000000000000E+00   0.00000000000000E+00   0.00000000000000E+00
     -2.59759445467091E-32  -1.72435560473002E-12  -1.72435560473002E-12   3.63327178836723E-16
      9.75000000000001E-01
      0.00000000000000E+00   0.00000000000000E+00   0.00000000000000E+00   0.00000000000000E+00  -1.95012745349885E-32
     -1.17158156088713E-12  -1.17158156088713E-12   3.82769611485062E-16  -1.45000000000000E+00  -1.45000000000000E+00
      0.00000000000000E+00   0.00000000000000E+00   0.00000000000000E+00   0.00000000000000E+00   0.00000000000000E+00
     -2.51646807177309E-15   0.00000000000000E+00   0.00000000000000E+00   0.00000000000000E+00   0.00000000000000E+00
     -1.94435518604914E-32  -1.17180952600048E-12  -1.17180952600048E-12   3.82769611485062E-16
      1.00000000000000E+00
      0.00000000000000E+00   0.00000000000000E+00   0.00000000000000E+00   0.00000000000000E+00  -1.45916572736187E-32
     -7.65018776722031E-13  -7.65018776722031E-13   4.02216893465438E-16  -1.50000000000000E+00  -1.50000000000000E+00
      0.00000000000000E+00   0.00000000000000E+00   0.00000000000000E+00   0.00000000000000E+00   0.00000000000000E+00
     -2.64374535325481E-15   0.00000000000000E+00   0.00000000000000E+00   0.00000000000000E+00   0.00000000000000E+00
     -1.46196624358687E-32  -7.64926759760796E-13  -7.64926759760796E-13   4.02216893465437E-16
}
