DF-ISE text

Info {
  version   = 1.0
  type      = xyplot
  datasets  = [
    "time"
    "Source OuterVoltage" "Source InnerVoltage" "Source QuasiFermiPotential" "Source DisplacementCurrent" "Source eCurrent"
    "Source hCurrent" "Source TotalCurrent" "Source Charge" "Gate OuterVoltage" "Gate InnerVoltage"
    "Gate QuasiFermiPotential" "Gate DisplacementCurrent" "Gate eCurrent" "Gate hCurrent" "Gate TotalCurrent"
    "Gate Charge" "Drain OuterVoltage" "Drain InnerVoltage" "Drain QuasiFermiPotential" "Drain DisplacementCurrent"
    "Drain eCurrent" "Drain hCurrent" "Drain TotalCurrent" "Drain Charge" ]
  functions = [
    Time
    OuterVoltage InnerVoltage QuasiFermiPotential DisplacementCurrent eCurrent
    hCurrent TotalCurrent Charge OuterVoltage InnerVoltage
    QuasiFermiPotential DisplacementCurrent eCurrent hCurrent TotalCurrent
    Charge OuterVoltage InnerVoltage QuasiFermiPotential DisplacementCurrent
    eCurrent hCurrent TotalCurrent Charge ]
}

Data {
      0.00000000000000E+00
      0.00000000000000E+00   0.00000000000000E+00   0.00000000000000E+00   0.00000000000000E+00  -5.68652063319988E-17
     -2.45234872894439E-22  -5.68654515668717E-17   4.09381360546031E-16  -5.00000000000000E-01  -5.00000000000000E-01
      0.00000000000000E+00   0.00000000000000E+00   0.00000000000000E+00   0.00000000000000E+00   0.00000000000000E+00
     -8.22722451243022E-16   1.00000000000000E-02   1.00000000000000E-02   0.00000000000000E+00   0.00000000000000E+00
      5.68652289216029E-17   2.08868525004034E-22   5.68654377901279E-17   4.13606246484365E-16
      2.50000000000000E-02
      0.00000000000000E+00   0.00000000000000E+00   0.00000000000000E+00   0.00000000000000E+00  -3.01451873674395E-16
     -2.40832961356757E-22  -3.01452114507356E-16   3.88520805339830E-16  -4.50000000000000E-01  -4.50000000000000E-01
      0.00000000000000E+00   0.00000000000000E+00   0.00000000000000E+00   0.00000000000000E+00   0.00000000000000E+00
     -7.80970999186739E-16   1.00000000000000E-02   1.00000000000000E-02   0.00000000000000E+00   0.00000000000000E+00
      3.01451896118933E-16   2.12061229751112E-22   3.01452108180163E-16   3.92747366154340E-16
      5.00000000000000E-02
      0.00000000000000E+00   0.00000000000000E+00   0.00000000000000E+00   0.00000000000000E+00  -1.59776007376570E-15
     -2.37125473544841E-22  -1.59776031089117E-15   3.67649651453906E-16  -4.00000000000000E-01  -4.00000000000000E-01
      0.00000000000000E+00   0.00000000000000E+00   0.00000000000000E+00   0.00000000000000E+00   0.00000000000000E+00
     -7.39224977490574E-16   1.00000000000000E-02   1.00000000000000E-02   0.00000000000000E+00   0.00000000000000E+00
      1.59776009746943E-15   2.14633176109804E-22   1.59776031210260E-15   3.71878268660290E-16
      7.50000000000000E-02
      0.00000000000000E+00   0.00000000000000E+00   0.00000000000000E+00   0.00000000000000E+00  -8.46021648288671E-15
     -2.39000695135975E-22  -8.46021672188740E-15   3.46767099807207E-16  -3.50000000000000E-01  -3.50000000000000E-01
      0.00000000000000E+00   0.00000000000000E+00   0.00000000000000E+00   0.00000000000000E+00   0.00000000000000E+00
     -6.97461352483746E-16   1.00000000000000E-02   1.00000000000000E-02   0.00000000000000E+00   0.00000000000000E+00
      8.46021650818609E-15   2.12490424701032E-22   8.46021672067651E-15   3.50998237967252E-16
      1.00000000000000E-01
      0.00000000000000E+00   0.00000000000000E+00   0.00000000000000E+00   0.00000000000000E+00  -4.47390082230031E-14
     -2.38038061330944E-22  -4.47390084610412E-14   3.25870819661351E-16  -3.00000000000000E-01  -3.00000000000000E-01
      0.00000000000000E+00   0.00000000000000E+00   0.00000000000000E+00   0.00000000000000E+00   0.00000000000000E+00
     -6.55671712084808E-16   1.00000000000000E-02   9.99999999999992E-03   0.00000000000000E+00   0.00000000000000E+00
      4.47390082409897E-14   2.12344575349511E-22   4.47390084533343E-14   3.30105067022175E-16
      1.25000000000000E-01
      0.00000000000000E+00   2.75534211622580E-16   0.00000000000000E+00   0.00000000000000E+00  -2.36212294036385E-13
     -2.35382455895538E-22  -2.36212294271767E-13   3.04957575002478E-16  -2.50000000000000E-01  -2.50000000000000E-01
      0.00000000000000E+00   0.00000000000000E+00   0.00000000000000E+00   0.00000000000000E+00   0.00000000000000E+00
     -6.13849055783598E-16   1.00000000000000E-02   9.99999999999974E-03   0.00000000000000E+00   0.00000000000000E+00
      2.36212293990447E-13   2.13215343531447E-22   2.36212294203662E-13   3.09195690683313E-16
      1.50000000000000E-01
      0.00000000000000E+00   1.28582632090537E-15   0.00000000000000E+00   0.00000000000000E+00  -1.24475259104709E-12
     -2.32300235366022E-22  -1.24475259127939E-12   2.84023095521451E-16  -2.00000000000000E-01  -2.00000000000000E-01
      0.00000000000000E+00   0.00000000000000E+00   0.00000000000000E+00   0.00000000000000E+00   0.00000000000000E+00
     -5.71984953767772E-16   1.00000000000000E-02   9.99999999999873E-03   0.00000000000000E+00   0.00000000000000E+00
      1.24475259046587E-12   2.14263285925330E-22   1.24475259068013E-12   2.88266077820776E-16
      1.75000000000000E-01
      0.00000000000000E+00   6.52097634173440E-15   0.00000000000000E+00   0.00000000000000E+00  -6.54395602840020E-12
     -2.31580971524963E-22  -6.54395602863178E-12   2.63061681916022E-16  -1.50000000000000E-01  -1.50000000000000E-01
      0.00000000000000E+00   0.00000000000000E+00   0.00000000000000E+00   0.00000000000000E+00   0.00000000000000E+00
     -5.30068321781598E-16   1.00000000000000E-02   9.99999999999349E-03   0.00000000000000E+00   0.00000000000000E+00
      6.54395602299061E-12   2.13574181356830E-22   6.54395602320418E-12   2.67310872865848E-16
      2.00000000000000E-01
      0.00000000000000E+00   3.42580869784075E-14   0.00000000000000E+00   0.00000000000000E+00  -3.43026282902741E-11
     -2.32333204313423E-22  -3.43026282905064E-11   2.42065552808868E-16  -1.00000000000000E-01  -1.00000000000000E-01
      0.00000000000000E+00   0.00000000000000E+00   0.00000000000000E+00   0.00000000000000E+00   0.00000000000000E+00
     -4.88084077867101E-16   1.00000000000000E-02   9.99999999996566E-03   0.00000000000000E+00   0.00000000000000E+00
      3.43026282383777E-11   2.11733392489011E-22   3.43026282385895E-11   2.46322802760549E-16
      2.25000000000000E-01
      0.00000000000000E+00   1.79189082291885E-13   0.00000000000000E+00   0.00000000000000E+00  -1.79146840309663E-10
     -2.29440575940904E-22  -1.79146840309893E-10   2.21023795322663E-16  -5.00000000000000E-02  -5.00000000000000E-02
      0.00000000000000E+00   0.00000000000000E+00   0.00000000000000E+00   0.00000000000000E+00   0.00000000000000E+00
     -4.46011082565589E-16   1.00000000000000E-02   9.99999999982083E-03   0.00000000000000E+00   0.00000000000000E+00
      1.79146839780304E-10   2.12169969147336E-22   1.79146839780517E-10   2.25291727861580E-16
      2.50000000000000E-01
      0.00000000000000E+00   9.31121945809906E-13   0.00000000000000E+00   0.00000000000000E+00  -9.31141445811722E-10
     -2.22610255249312E-22  -9.31141445811944E-10   1.99920655566302E-16  -5.55111512312578E-17  -5.55111512312578E-17
      0.00000000000000E+00   0.00000000000000E+00   0.00000000000000E+00   0.00000000000000E+00   0.00000000000000E+00
     -4.03818712791609E-16   1.00000000000000E-02   9.99999999906889E-03   0.00000000000000E+00   0.00000000000000E+00
      9.31141439899586E-10   2.15044446380839E-22   9.31141439899801E-10   2.04203101613906E-16
      2.75000000000000E-01
      0.00000000000000E+00   4.80908228492331E-12   0.00000000000000E+00   0.00000000000000E+00  -4.80903221874203E-09
     -2.18130776200010E-22  -4.80903221874225E-09   1.78732718443296E-16   4.99999999999999E-02   5.00000000000000E-02
      0.00000000000000E+00   0.00000000000000E+00   0.00000000000000E+00   0.00000000000000E+00   0.00000000000000E+00
     -3.61460837214746E-16   1.00000000000000E-02   9.99999999519093E-03   0.00000000000000E+00   0.00000000000000E+00
      4.80903214455007E-09   2.16054050849807E-22   4.80903214455029E-09   1.83035433228896E-16
      3.00000000000000E-01
      0.00000000000000E+00   2.46185225847915E-11   0.00000000000000E+00   0.00000000000000E+00  -2.46184894626410E-08
     -2.15864680150934E-22  -2.46184894626412E-08   1.57424273787815E-16   1.00000000000000E-01   1.00000000000000E-01
      0.00000000000000E+00   0.00000000000000E+00   0.00000000000000E+00   0.00000000000000E+00   0.00000000000000E+00
     -3.18864386325378E-16   1.00000000000000E-02   9.99999997538149E-03   0.00000000000000E+00   0.00000000000000E+00
      2.46184883845379E-08   2.15235151371628E-22   2.46184883845381E-08   1.61756095497567E-16
      3.25000000000000E-01
      0.00000000000000E+00   1.24393777315977E-10   0.00000000000000E+00   0.00000000000000E+00  -1.24393783912805E-07
     -2.14022047747969E-22  -1.24393783912805E-07   1.35940114890831E-16   1.50000000000000E-01   1.50000000000000E-01
      0.00000000000000E+00   0.00000000000000E+00   0.00000000000000E+00   0.00000000000000E+00   0.00000000000000E+00
     -2.75905132703253E-16   1.00000000000000E-02   9.99999987560624E-03   0.00000000000000E+00   0.00000000000000E+00
      1.24393783912815E-07   2.13722854471893E-22   1.24393783912815E-07   1.40314625371157E-16
      3.50000000000000E-01
      0.00000000000000E+00   6.15355881811466E-10   0.00000000000000E+00   0.00000000000000E+00  -6.15355890352111E-07
     -2.12040045168314E-22  -6.15355890352111E-07   1.14196795528259E-16   2.00000000000000E-01   2.00000000000000E-01
      0.00000000000000E+00   0.00000000000000E+00   0.00000000000000E+00   0.00000000000000E+00   0.00000000000000E+00
     -2.32348595019796E-16   1.00000000000000E-02   9.99999938464413E-03   0.00000000000000E+00   0.00000000000000E+00
      6.15355890352111E-07   2.11800828420175E-22   6.15355890352111E-07   1.18633545727914E-16
      3.75000000000000E-01
      0.00000000000000E+00   2.92532670264422E-09   0.00000000000000E+00   0.00000000000000E+00  -2.92532670494722E-06
     -2.09716714377969E-22  -2.92532670494722E-06   9.20841682865743E-17   2.50000000000000E-01   2.50000000000000E-01
      0.00000000000000E+00   0.00000000000000E+00   0.00000000000000E+00   0.00000000000000E+00   0.00000000000000E+00
     -1.87685136905559E-16   1.00000000000000E-02   9.99999707467331E-03   0.00000000000000E+00   0.00000000000000E+00
      2.92532670494735E-06   2.09475362094466E-22   2.92532670494735E-06   9.66036005374980E-17
      4.00000000000000E-01
      0.00000000000000E+00   1.27430320464111E-08   0.00000000000000E+00   0.00000000000000E+00  -1.27430320749248E-05
     -2.06969419024840E-22  -1.27430320749248E-05   6.95297489815281E-17   3.00000000000000E-01   3.00000000000000E-01
      0.00000000000000E+00   0.00000000000000E+00   0.00000000000000E+00   0.00000000000000E+00   0.00000000000000E+00
     -1.40649716443019E-16   1.00000000000000E-02   9.99998725696797E-03   0.00000000000000E+00   0.00000000000000E+00
      1.27430320749225E-05   2.06650073961390E-22   1.27430320749225E-05   7.41206476091315E-17
      4.25000000000000E-01
      0.00000000000000E+00   4.55290653757196E-08   0.00000000000000E+00   0.00000000000000E+00  -4.55290653367107E-05
     -2.03775242562832E-22  -4.55290653367107E-05   4.67322653476744E-17   3.50000000000000E-01   3.50000000000000E-01
      0.00000000000000E+00   0.00000000000000E+00   0.00000000000000E+00   0.00000000000000E+00   0.00000000000000E+00
     -8.81332906560841E-17   1.00000000000000E-02   9.99995447093464E-03   0.00000000000000E+00   0.00000000000000E+00
      4.55290653364250E-05   2.03186479458985E-22   4.55290653364250E-05   5.12707667892224E-17
      4.50000000000000E-01
      0.00000000000000E+00   1.15368624181050E-07   0.00000000000000E+00   0.00000000000000E+00  -1.15368624122289E-04
     -1.99988596645189E-22  -1.15368624122289E-04   2.43531131707805E-17   4.00000000000000E-01   4.00000000000000E-01
      0.00000000000000E+00   0.00000000000000E+00   0.00000000000000E+00   0.00000000000000E+00   0.00000000000000E+00
     -2.48532703265447E-17   1.00000000000000E-02   9.99988463137583E-03   0.00000000000000E+00   0.00000000000000E+00
      1.15368624122281E-04   1.98905611224188E-22   1.15368624122281E-04   2.86100986951248E-17
      4.75000000000000E-01
      0.00000000000000E+00   2.05324243726850E-07   0.00000000000000E+00   0.00000000000000E+00  -2.05324243733081E-04
     -1.95433588466031E-22  -2.05324243733081E-04   2.92797452240291E-18   4.50000000000000E-01   4.50000000000000E-01
      0.00000000000000E+00   0.00000000000000E+00   0.00000000000000E+00   0.00000000000000E+00   0.00000000000000E+00
      5.26126801680465E-17   1.00000000000000E-02   9.99979467575629E-03   0.00000000000000E+00   0.00000000000000E+00
      2.05324243733077E-04   1.93892866864364E-22   2.05324243733077E-04   6.78053210798980E-18
      5.00000000000000E-01
      0.00000000000000E+00   2.90228848265056E-07   0.00000000000000E+00   0.00000000000000E+00  -2.90228850311041E-04
     -1.90662222648540E-22  -2.90228850311041E-04  -1.76130725874734E-17   5.00000000000000E-01   5.00000000000001E-01
      0.00000000000000E+00   0.00000000000000E+00   0.00000000000000E+00   0.00000000000000E+00   0.00000000000000E+00
      1.43138636676076E-16   1.00000000000000E-02   9.99970977115166E-03   0.00000000000000E+00   0.00000000000000E+00
      2.90228845671680E-04   1.88877934219078E-22   2.90228845671680E-04  -1.41451557222508E-17
      5.25000000000000E-01
      0.00000000000000E+00   3.61526915182108E-07   0.00000000000000E+00   0.00000000000000E+00  -3.61526915322244E-04
     -1.86412557929743E-22  -3.61526915322244E-04  -3.75489742196266E-17   5.50000000000000E-01   5.50000000000000E-01
      0.00000000000000E+00   0.00000000000000E+00   0.00000000000000E+00   0.00000000000000E+00   0.00000000000000E+00
      2.44023230329433E-16   1.00000000000000E-02   9.99963847308483E-03   0.00000000000000E+00   0.00000000000000E+00
      3.61526914989879E-04   1.84562935234640E-22   3.61526914989879E-04  -3.44038617347164E-17
      5.50000000000000E-01
      0.00000000000000E+00   4.19677737506819E-07   0.00000000000000E+00   0.00000000000000E+00  -4.19677737551112E-04
     -1.82963422909815E-22  -4.19677737551112E-04  -5.71075477962619E-17   6.00000000000000E-01   6.00000000000000E-01
      0.00000000000000E+00   0.00000000000000E+00   0.00000000000000E+00   0.00000000000000E+00   0.00000000000000E+00
      3.52858057160814E-16   1.00000000000000E-02   9.99958032226251E-03   0.00000000000000E+00   0.00000000000000E+00
      4.19677737517666E-04   1.81148929922330E-22   4.19677737517666E-04  -5.42258404190868E-17
      5.75000000000000E-01
      0.00000000000000E+00   4.67194794710280E-07   0.00000000000000E+00   0.00000000000000E+00  -4.67194794751672E-04
     -1.80258722088154E-22  -4.67194794751672E-04  -7.64442264684940E-17   6.50000000000000E-01   6.50000000000000E-01
      0.00000000000000E+00   0.00000000000000E+00   0.00000000000000E+00   0.00000000000000E+00   0.00000000000000E+00
      4.67746240421217E-16   1.00000000000000E-02   9.99953280520530E-03   0.00000000000000E+00   0.00000000000000E+00
      4.67194794746973E-04   1.78527756882089E-22   4.67194794746973E-04  -7.37776271718252E-17
      6.00000000000000E-01
      0.00000000000000E+00   5.06519653487552E-07   0.00000000000000E+00   0.00000000000000E+00  -5.06519653479840E-04
     -1.78142710966335E-22  -5.06519653479840E-04  -9.56611878787685E-17   7.00000000000000E-01   7.00000000000000E-01
      0.00000000000000E+00   0.00000000000000E+00   0.00000000000000E+00   0.00000000000000E+00   0.00000000000000E+00
      5.87243336105758E-16   1.00000000000000E-02   9.99949348034653E-03   0.00000000000000E+00   0.00000000000000E+00
      5.06519653479223E-04   1.76515433281968E-22   5.06519653479223E-04  -9.31720169347333E-17
      6.25000000000000E-01
      0.00000000000000E+00   5.39587545824466E-07   0.00000000000000E+00   0.00000000000000E+00  -5.39587545844415E-04
     -1.76467016126117E-22  -5.39587545844415E-04  -1.14823902946080E-16   7.50000000000000E-01   7.50000000000000E-01
      0.00000000000000E+00   0.00000000000000E+00   0.00000000000000E+00   0.00000000000000E+00   0.00000000000000E+00
      7.10275543648783E-16   1.00000000000000E-02   9.99946041245419E-03   0.00000000000000E+00   0.00000000000000E+00
      5.39587545844507E-04   1.74949514402140E-22   5.39587545844507E-04  -1.12482933579724E-16
      6.50000000000000E-01
      0.00000000000000E+00   5.67842230486396E-07   0.00000000000000E+00   0.00000000000000E+00  -5.67842230499983E-04
     -1.75116801504507E-22  -5.67842230499983E-04  -1.33973167906768E-16   8.00000000000000E-01   8.00000000000000E-01
      0.00000000000000E+00   0.00000000000000E+00   0.00000000000000E+00   0.00000000000000E+00   0.00000000000000E+00
      8.36054442157841E-16   1.00000000000000E-02   9.99943215776944E-03   0.00000000000000E+00   0.00000000000000E+00
      5.67842230500054E-04   1.73708453936875E-22   5.67842230500054E-04  -1.31757567186549E-16
      6.75000000000000E-01
      0.00000000000000E+00   5.92343260966649E-07   0.00000000000000E+00   0.00000000000000E+00  -5.92343261027126E-04
     -1.74008882005111E-22  -5.92343261027126E-04  -1.53133609962999E-16   8.50000000000000E-01   8.50000000000000E-01
      0.00000000000000E+00   0.00000000000000E+00   0.00000000000000E+00   0.00000000000000E+00   0.00000000000000E+00
      9.64001222768578E-16   1.00000000000000E-02   9.99940765673905E-03   0.00000000000000E+00   0.00000000000000E+00
      5.92343261027150E-04   1.72706025228340E-22   5.92343261027150E-04  -1.51025327919035E-16
      7.00000000000000E-01
      0.00000000000000E+00   6.13869692338864E-07   0.00000000000000E+00   0.00000000000000E+00  -6.13869692370020E-04
     -1.73083994790887E-22  -6.13869692370020E-04  -1.72319487767904E-16   9.00000000000001E-01   9.00000000000000E-01
      0.00000000000000E+00   0.00000000000000E+00   0.00000000000000E+00   0.00000000000000E+00   0.00000000000000E+00
      1.09368721187634E-15   1.00000000000000E-02   9.99938613030768E-03   0.00000000000000E+00   0.00000000000000E+00
      6.13869692369862E-04   1.71881727923433E-22   6.13869692369862E-04  -1.70304068689565E-16
      7.25000000000000E-01
      0.00000000000000E+00   6.33000225250234E-07   0.00000000000000E+00   0.00000000000000E+00  -6.33000225214998E-04
     -1.72299755747739E-22  -6.33000225214998E-04  -1.91538520219158E-16   9.50000000000001E-01   9.50000000000001E-01
      0.00000000000000E+00   0.00000000000000E+00   0.00000000000000E+00   0.00000000000000E+00   0.00000000000000E+00
      1.22479049247888E-15   1.00000000000000E-02   9.99936699977476E-03   0.00000000000000E+00   0.00000000000000E+00
      6.33000225214867E-04   1.71192819522825E-22   6.33000225214867E-04  -1.89604238457621E-16
      7.50000000000000E-01
      0.00000000000000E+00   6.50170759966850E-07   0.00000000000000E+00   0.00000000000000E+00  -6.50170617638071E-04
     -1.71625435960489E-22  -6.50170617638071E-04  -2.10794357650975E-16   1.00000000000000E+00   1.00000000000000E+00
      0.00000000000000E+00   0.00000000000000E+00   0.00000000000000E+00   0.00000000000000E+00   0.00000000000000E+00
      1.35706540713227E-15   1.00000000000000E-02   9.99934982924005E-03   0.00000000000000E+00   0.00000000000000E+00
      6.50170905048982E-04   1.70608698116148E-22   6.50170905048982E-04  -2.08931587724107E-16
      7.75000000000000E-01
      0.00000000000000E+00   6.65714681955252E-07   0.00000000000000E+00   0.00000000000000E+00  -6.65714610612235E-04
     -1.71038541368473E-22  -6.65714610612235E-04  -2.30088155548754E-16   1.05000000000000E+00   1.05000000000000E+00
      0.00000000000000E+00   0.00000000000000E+00   0.00000000000000E+00   0.00000000000000E+00   0.00000000000000E+00
      1.49032140181316E-15   1.00000000000000E-02   9.99933428531806E-03   0.00000000000000E+00   0.00000000000000E+00
      6.65714754847369E-04   1.70106951626528E-22   6.65714754847369E-04  -2.28288908529363E-16
      8.00000000000000E-01
      0.00000000000000E+00   6.79890915857408E-07   0.00000000000000E+00   0.00000000000000E+00  -6.79890879017420E-04
     -1.70522112830702E-22  -6.79890879017420E-04  -2.49419569132833E-16   1.10000000000000E+00   1.10000000000000E+00
      0.00000000000000E+00   0.00000000000000E+00   0.00000000000000E+00   0.00000000000000E+00   0.00000000000000E+00
      1.62440833919094E-15   1.00000000000000E-02   9.99932010908416E-03   0.00000000000000E+00   0.00000000000000E+00
      6.79890953491323E-04   1.69671076570886E-22   6.79890953491323E-04  -2.47677147185439E-16
      8.25000000000000E-01
      0.00000000000000E+00   6.92903553905033E-07   0.00000000000000E+00   0.00000000000000E+00  -6.92903534386823E-04
     -1.70063317445935E-22  -6.92903534386823E-04  -2.68787379630770E-16   1.15000000000000E+00   1.15000000000000E+00
      0.00000000000000E+00   0.00000000000000E+00   0.00000000000000E+00   0.00000000000000E+00   0.00000000000000E+00
      1.75920621020831E-15   1.00000000000000E-02   9.99930709644611E-03   0.00000000000000E+00   0.00000000000000E+00
      6.92903574006565E-04   1.69288571629216E-22   6.92903574006565E-04  -2.67096115261429E-16
      8.50000000000000E-01
      0.00000000000000E+00   7.04915726311810E-07   0.00000000000000E+00   0.00000000000000E+00  -7.04915715619557E-04
     -1.69652247515545E-22  -7.04915715619557E-04  -2.88189887279690E-16   1.20000000000000E+00   1.20000000000000E+00
      0.00000000000000E+00   0.00000000000000E+00   0.00000000000000E+00   0.00000000000000E+00   0.00000000000000E+00
      1.89461782979624E-15   1.00000000000000E-02   9.99929508427370E-03   0.00000000000000E+00   0.00000000000000E+00
      7.04915737315790E-04   1.68949860977843E-22   7.04915737315790E-04  -2.86544944055373E-16
      8.75000000000000E-01
      0.00000000000000E+00   7.16059520964224E-07   0.00000000000000E+00   0.00000000000000E+00  -7.16059514935341E-04
     -1.69281146278594E-22  -7.16059514935341E-04  -3.07625156995053E-16   1.25000000000000E+00   1.25000000000000E+00
      0.00000000000000E+00   0.00000000000000E+00   0.00000000000000E+00   0.00000000000000E+00   0.00000000000000E+00
      2.03056356985646E-15   1.00000000000000E-02   9.99928394047905E-03   0.00000000000000E+00   0.00000000000000E+00
      7.16059527135243E-04   1.68647501684118E-22   7.16059527135243E-04  -3.06022375442311E-16
      9.00000000000000E-01
      0.00000000000000E+00   7.26443174405267E-07   0.00000000000000E+00   0.00000000000000E+00  -7.26443171038449E-04
     -1.68943861843433E-22  -7.26443171038449E-04  -3.27091170728802E-16   1.30000000000000E+00   1.30000000000000E+00
      0.00000000000000E+00   0.00000000000000E+00   0.00000000000000E+00   0.00000000000000E+00   0.00000000000000E+00
      2.16697749986196E-15   1.00000000000000E-02   9.99927355682552E-03   0.00000000000000E+00   0.00000000000000E+00
      7.26443178060285E-04   1.68375630930156E-22   7.26443178060285E-04  -3.25526947857443E-16
      9.25000000000000E-01
      0.00000000000000E+00   7.36156355202941E-07   0.00000000000000E+00   0.00000000000000E+00  -7.36156353199390E-04
     -1.68635456582149E-22  -7.36156353199390E-04  -3.46585920550829E-16   1.35000000000000E+00   1.35000000000000E+00
      0.00000000000000E+00   0.00000000000000E+00   0.00000000000000E+00   0.00000000000000E+00   0.00000000000000E+00
      2.30380451418585E-15   1.00000000000000E-02   9.99926384364481E-03   0.00000000000000E+00   0.00000000000000E+00
      7.36156357324046E-04   1.68129573921280E-22   7.36156357324046E-04  -3.45057114702901E-16
      9.50000000000001E-01
      0.00000000000000E+00   7.45274096374534E-07   0.00000000000000E+00   0.00000000000000E+00  -7.45274095176410E-04
     -1.68351923714476E-22  -7.45274095176410E-04  -3.66107463955250E-16   1.40000000000000E+00   1.40000000000000E+00
      0.00000000000000E+00   0.00000000000000E+00   0.00000000000000E+00   0.00000000000000E+00   0.00000000000000E+00
      2.44099816199074E-15   1.00000000000000E-02   9.99925472590364E-03   0.00000000000000E+00   0.00000000000000E+00
      7.45274097641362E-04   1.67905561337991E-22   7.45274097641362E-04  -3.64611318941859E-16
      9.75000000000001E-01
      0.00000000000000E+00   7.53859762706380E-07   0.00000000000000E+00   0.00000000000000E+00  -7.53859761967370E-04
     -1.68089978807313E-22  -7.53859761967370E-04  -3.85653955055454E-16   1.45000000000000E+00   1.45000000000000E+00
      0.00000000000000E+00   0.00000000000000E+00   0.00000000000000E+00   0.00000000000000E+00   0.00000000000000E+00
      2.57851898524961E-15   1.00000000000000E-02   9.99924614023731E-03   0.00000000000000E+00   0.00000000000000E+00
      7.53859763462399E-04   1.67700522704414E-22   7.53859763462399E-04  -3.84188039136474E-16
      1.00000000000000E+00
      0.00000000000000E+00   7.61967315277709E-07   0.00000000000000E+00   0.00000000000000E+00  -7.61967314864943E-04
     -1.67846904366115E-22  -7.61967314864943E-04  -4.05223660413434E-16   1.50000000000000E+00   1.50000000000000E+00
      0.00000000000000E+00   0.00000000000000E+00   0.00000000000000E+00   0.00000000000000E+00   0.00000000000000E+00
      2.71633322987614E-15   1.00000000000000E-02   9.99923803268474E-03   0.00000000000000E+00   0.00000000000000E+00
      7.61967315784229E-04   1.67511933193158E-22   7.61967315784229E-04  -4.03785816810504E-16
}
