DF-ISE text

Info {
  version   = 1.0
  type      = xyplot
  datasets  = [
    "time"
    "Source OuterVoltage" "Source InnerVoltage" "Source QuasiFermiPotential" "Source DisplacementCurrent" "Source eCurrent"
    "Source hCurrent" "Source TotalCurrent" "Source Charge" "Gate OuterVoltage" "Gate InnerVoltage"
    "Gate QuasiFermiPotential" "Gate DisplacementCurrent" "Gate eCurrent" "Gate hCurrent" "Gate TotalCurrent"
    "Gate Charge" "Drain OuterVoltage" "Drain InnerVoltage" "Drain QuasiFermiPotential" "Drain DisplacementCurrent"
    "Drain eCurrent" "Drain hCurrent" "Drain TotalCurrent" "Drain Charge" ]
  functions = [
    Time
    OuterVoltage InnerVoltage QuasiFermiPotential DisplacementCurrent eCurrent
    hCurrent TotalCurrent Charge OuterVoltage InnerVoltage
    QuasiFermiPotential DisplacementCurrent eCurrent hCurrent TotalCurrent
    Charge OuterVoltage InnerVoltage QuasiFermiPotential DisplacementCurrent
    eCurrent hCurrent TotalCurrent Charge ]
}

Data {
      0.00000000000000E+00
      0.00000000000000E+00   0.00000000000000E+00   0.00000000000000E+00   0.00000000000000E+00  -8.51955432270476E-16
     -1.89768869999612E-20  -8.51974409157476E-16   4.07537008785778E-16  -5.00000000000000E-01  -5.00000000000000E-01
      0.00000000000000E+00   0.00000000000000E+00   0.00000000000000E+00   0.00000000000000E+00   0.00000000000000E+00
     -1.11028423284458E-15   7.00000000000000E-01   7.00000000000000E-01   0.00000000000000E+00   0.00000000000000E+00
      8.51971113410456E-16   1.19066766432056E-21   8.51972304078120E-16   7.02904123475626E-16
      2.50000000000000E-02
      0.00000000000000E+00   0.00000000000000E+00   0.00000000000000E+00   0.00000000000000E+00  -4.47366431113922E-15
     -1.39835979925416E-20  -4.47367829473721E-15   3.86681505543354E-16  -4.50000000000000E-01  -4.50000000000000E-01
      0.00000000000000E+00   0.00000000000000E+00   0.00000000000000E+00   0.00000000000000E+00   0.00000000000000E+00
     -1.06849043922483E-15   7.00000000000000E-01   7.00000000000000E-01   0.00000000000000E+00   0.00000000000000E+00
      4.47367709049327E-15   1.19012885510281E-21   4.47367828062212E-15   6.82091058920112E-16
      5.00000000000000E-02
      0.00000000000000E+00   0.00000000000000E+00   0.00000000000000E+00   0.00000000000000E+00  -2.35300044929038E-14
     -1.25536181674599E-20  -2.35300170465220E-14   3.65809110615149E-16  -4.00000000000000E-01  -4.00000000000000E-01
      0.00000000000000E+00   0.00000000000000E+00   0.00000000000000E+00   0.00000000000000E+00   0.00000000000000E+00
     -1.02678113006228E-15   7.00000000000000E-01   7.00000000000000E-01   0.00000000000000E+00   0.00000000000000E+00
      2.35300158575072E-14   1.18916978739703E-21   2.35300170466770E-14   6.61272650481629E-16
      7.50000000000000E-02
      0.00000000000000E+00   9.18447372075268E-17   0.00000000000000E+00   0.00000000000000E+00  -1.23619316844937E-13
     -1.37231014897561E-20  -1.23619330568038E-13   3.44923994130792E-16  -3.50000000000000E-01  -3.50000000000000E-01
      0.00000000000000E+00   0.00000000000000E+00   0.00000000000000E+00   0.00000000000000E+00   0.00000000000000E+00
     -9.85073032892163E-16   7.00000000000000E-01   7.00000000000000E-01   0.00000000000000E+00   0.00000000000000E+00
      1.23619329379814E-13   1.18818018955282E-21   1.23619330567994E-13   6.40452551425593E-16
      1.00000000000000E-01
      0.00000000000000E+00   6.42913160452687E-16   0.00000000000000E+00   0.00000000000000E+00  -6.48300382219208E-13
     -1.74081474820615E-20  -6.48300399627356E-13   3.24024405314926E-16  -3.00000000000000E-01  -3.00000000000000E-01
      0.00000000000000E+00   0.00000000000000E+00   0.00000000000000E+00   0.00000000000000E+00   0.00000000000000E+00
     -9.43351556090900E-16   7.00000000000000E-01   6.99999999999999E-01   0.00000000000000E+00   0.00000000000000E+00
      6.48300398440573E-13   1.18715735890437E-21   6.48300399627730E-13   6.19631206719845E-16
      1.25000000000000E-01
      0.00000000000000E+00   3.39825527667849E-15   0.00000000000000E+00   0.00000000000000E+00  -3.39252528415281E-12
     -2.12330999032586E-20  -3.39252530538591E-12   3.03107024490097E-16  -2.50000000000000E-01  -2.50000000000000E-01
      0.00000000000000E+00   0.00000000000000E+00   0.00000000000000E+00   0.00000000000000E+00   0.00000000000000E+00
     -9.01611417715509E-16   7.00000000000000E-01   6.99999999999997E-01   0.00000000000000E+00   0.00000000000000E+00
      3.39252530419830E-12   1.18609626409805E-21   3.39252530538439E-12   5.98808574863179E-16
      1.50000000000000E-01
      0.00000000000000E+00   1.77260342810527E-14   0.00000000000000E+00   0.00000000000000E+00  -1.77067775747374E-11
     -2.14429651645978E-20  -1.77067775961804E-11   2.82167345500984E-16  -2.00000000000000E-01  -2.00000000000000E-01
      0.00000000000000E+00   0.00000000000000E+00   0.00000000000000E+00   0.00000000000000E+00   0.00000000000000E+00
     -8.59847656986779E-16   7.00000000000000E-01   6.99999999999982E-01   0.00000000000000E+00   0.00000000000000E+00
      1.77067775949889E-11   1.18499116299335E-21   1.77067775961739E-11   5.77984524807102E-16
      1.75000000000000E-01
      0.00000000000000E+00   9.21202714191493E-14   0.00000000000000E+00   0.00000000000000E+00  -9.21272684186151E-11
     -1.75655366351950E-20  -9.21272684361807E-11   2.61199311858427E-16  -1.50000000000000E-01  -1.50000000000000E-01
      0.00000000000000E+00   0.00000000000000E+00   0.00000000000000E+00   0.00000000000000E+00   0.00000000000000E+00
     -8.18053971800760E-16   7.00000000000000E-01   6.99999999999908E-01   0.00000000000000E+00   0.00000000000000E+00
      9.21272684349769E-11   1.18383539003855E-21   9.21272684361607E-11   5.57158888498561E-16
      2.00000000000000E-01
      0.00000000000000E+00   4.77500788741932E-13   0.00000000000000E+00   0.00000000000000E+00  -4.77481036474522E-10
     -1.83138837298819E-20  -4.77481036492836E-10   2.40194609532961E-16  -1.00000000000000E-01  -1.00000000000000E-01
      0.00000000000000E+00   0.00000000000000E+00   0.00000000000000E+00   0.00000000000000E+00   0.00000000000000E+00
     -7.76221812637385E-16   7.00000000000000E-01   6.99999999999522E-01   0.00000000000000E+00   0.00000000000000E+00
      4.77481036491627E-10   1.18262126424179E-21   4.77481036492809E-10   5.36331467571290E-16
      2.25000000000000E-01
      0.00000000000000E+00   2.46272478348262E-12   0.00000000000000E+00   0.00000000000000E+00  -2.46273333070413E-09
     -2.02273703237244E-20  -2.46273333072436E-09   2.19141513489364E-16  -5.00000000000000E-02  -5.00000000000000E-02
      0.00000000000000E+00   0.00000000000000E+00   0.00000000000000E+00   0.00000000000000E+00   0.00000000000000E+00
     -7.34339155620072E-16   7.00000000000000E-01   6.99999999997537E-01   0.00000000000000E+00   0.00000000000000E+00
      2.46273333072373E-09   1.18134000002740E-21   2.46273333072491E-09   5.15502036078002E-16
      2.50000000000000E-01
      0.00000000000000E+00   1.26232325265397E-11   0.00000000000000E+00   0.00000000000000E+00  -1.26232216197754E-08
     -1.37427415853908E-20  -1.26232216197892E-08   1.98023002378715E-16  -5.55111512312578E-17  -5.55111512312578E-17
      0.00000000000000E+00   0.00000000000000E+00   0.00000000000000E+00   0.00000000000000E+00   0.00000000000000E+00
     -6.92388470655413E-16   7.00000000000000E-01   6.99999999987377E-01   0.00000000000000E+00   0.00000000000000E+00
      1.26232216142899E-08   1.17998201803249E-21   1.26232216142911E-08   4.94670344143779E-16
      2.75000000000000E-01
      0.00000000000000E+00   6.41686114763595E-11   0.00000000000000E+00   0.00000000000000E+00  -6.41686369163501E-08
     -5.58509076892452E-21  -6.41686369163557E-08   1.76813664102571E-16   4.99999999999999E-02   5.00000000000000E-02
      0.00000000000000E+00   0.00000000000000E+00   0.00000000000000E+00   0.00000000000000E+00   0.00000000000000E+00
     -6.50343082094408E-16   7.00000000000000E-01   6.99999999935831E-01   0.00000000000000E+00   0.00000000000000E+00
      6.41686368465917E-08   1.17853882249478E-21   6.41686368465929E-08   4.73836109572732E-16
      3.00000000000000E-01
      0.00000000000000E+00   3.22451993488199E-10   0.00000000000000E+00   0.00000000000000E+00  -3.22451980677557E-07
     -2.17260097128513E-21  -3.22451980677560E-07   1.55474755609687E-16   1.00000000000000E-01   1.00000000000000E-01
      0.00000000000000E+00   0.00000000000000E+00   0.00000000000000E+00   0.00000000000000E+00   0.00000000000000E+00
     -6.08160064635753E-16   7.00000000000000E-01   6.99999999677548E-01   0.00000000000000E+00   0.00000000000000E+00
      3.22451980677551E-07   1.17701488071911E-21   3.22451980677552E-07   4.52998904777071E-16
      3.25000000000000E-01
      0.00000000000000E+00   1.59277731071611E-09   0.00000000000000E+00   0.00000000000000E+00  -1.59277729841520E-06
     -1.36792163974744E-21  -1.59277729841520E-06   1.33947334833764E-16   1.50000000000000E-01   1.50000000000000E-01
      0.00000000000000E+00   0.00000000000000E+00   0.00000000000000E+00   0.00000000000000E+00   0.00000000000000E+00
     -5.65764837599658E-16   7.00000000000000E-01   6.99999998407223E-01   0.00000000000000E+00   0.00000000000000E+00
      1.59277729841522E-06   1.17548312998882E-21   1.59277729841522E-06   4.32157442983208E-16
      3.50000000000000E-01
      0.00000000000000E+00   7.64954472592199E-09   0.00000000000000E+00   0.00000000000000E+00  -7.64954470301778E-06
     -1.21087270410536E-21  -7.64954470301778E-06   1.12148021330291E-16   2.00000000000000E-01   2.00000000000000E-01
      0.00000000000000E+00   0.00000000000000E+00   0.00000000000000E+00   0.00000000000000E+00   0.00000000000000E+00
     -5.23014442098047E-16   7.00000000000000E-01   6.99999992350455E-01   0.00000000000000E+00   0.00000000000000E+00
      7.64954470301782E-06   1.17434295203876E-21   7.64954470301782E-06   4.11305914563922E-16
      3.75000000000000E-01
      0.00000000000000E+00   3.48787479040848E-08   0.00000000000000E+00   0.00000000000000E+00  -3.48787479238697E-05
     -1.18345920539822E-21  -3.48787479238697E-05   8.99926363873812E-17   2.50000000000000E-01   2.50000000000000E-01
      0.00000000000000E+00   0.00000000000000E+00   0.00000000000000E+00   0.00000000000000E+00   0.00000000000000E+00
     -4.79609491714563E-16   7.00000000000000E-01   6.99999965121252E-01   0.00000000000000E+00   0.00000000000000E+00
      3.48787479238699E-05   1.17539025807081E-21   3.48787479238699E-05   3.90417912792581E-16
      4.00000000000000E-01
      0.00000000000000E+00   1.43365640545173E-07   0.00000000000000E+00   0.00000000000000E+00  -1.43365640533589E-04
     -1.19307150966433E-21  -1.43365640533589E-04   6.75241171168011E-17   3.00000000000000E-01   3.00000000000000E-01
      0.00000000000000E+00   0.00000000000000E+00   0.00000000000000E+00   0.00000000000000E+00   0.00000000000000E+00
     -4.34932210489336E-16   7.00000000000000E-01   6.99999856634359E-01   0.00000000000000E+00   0.00000000000000E+00
      1.43365640533589E-04   1.18529962068248E-21   1.43365640533589E-04   3.69392529912621E-16
      4.25000000000000E-01
      0.00000000000000E+00   4.87552099613425E-07   0.00000000000000E+00   0.00000000000000E+00  -4.87552099586836E-04
     -1.24527026246226E-21  -4.87552099586836E-04   4.51736177747280E-17   3.50000000000000E-01   3.50000000000000E-01
      0.00000000000000E+00   0.00000000000000E+00   0.00000000000000E+00   0.00000000000000E+00   0.00000000000000E+00
     -3.88007411000494E-16   7.00000000000000E-01   6.99999512447900E-01   0.00000000000000E+00   0.00000000000000E+00
      4.87552099586911E-04   1.22162442963724E-21   4.87552099586911E-04   3.47962225439743E-16
      4.50000000000000E-01
      0.00000000000000E+00   1.28207510143584E-06   0.00000000000000E+00   0.00000000000000E+00  -1.28207510146410E-03
     -1.37032725780052E-21  -1.28207510146410E-03   2.37113706099435E-17   4.00000000000000E-01   4.00000000000000E-01
      0.00000000000000E+00   0.00000000000000E+00   0.00000000000000E+00   0.00000000000000E+00   0.00000000000000E+00
     -3.38064734097317E-16   7.00000000000000E-01   6.99998717924898E-01   0.00000000000000E+00   0.00000000000000E+00
      1.28207510146475E-03   1.31075750747615E-21   1.28207510146475E-03   3.25743936310717E-16
      4.75000000000000E-01
      0.00000000000000E+00   2.64202599827941E-06   0.00000000000000E+00   0.00000000000000E+00  -2.64202599830125E-03
     -1.58471678450116E-21  -2.64202599830125E-03   3.62886585490867E-18   4.50000000000000E-01   4.50000000000000E-01
      0.00000000000000E+00   0.00000000000000E+00   0.00000000000000E+00   0.00000000000000E+00   0.00000000000000E+00
     -2.85117597857114E-16   7.00000000000000E-01   6.99997357974002E-01   0.00000000000000E+00   0.00000000000000E+00
      2.64202599829583E-03   1.47275097919123E-21   2.64202599829583E-03   3.02517386648914E-16
      5.00000000000000E-01
      0.00000000000000E+00   4.53848683401730E-06   0.00000000000000E+00   0.00000000000000E+00  -4.53848683400214E-03
     -1.88405803319036E-21  -4.53848683400214E-03  -1.50780772413865E-17   5.00000000000000E-01   5.00000000000001E-01
      0.00000000000000E+00   0.00000000000000E+00   0.00000000000000E+00   0.00000000000000E+00   0.00000000000000E+00
     -2.29575403678413E-16   7.00000000000000E-01   6.99995461513166E-01   0.00000000000000E+00   0.00000000000000E+00
      4.53848683400459E-03   1.71577444163946E-21   4.53848683400459E-03   2.78310257549658E-16
      5.25000000000000E-01
      0.00000000000000E+00   6.88152611965522E-06   0.00000000000000E+00   0.00000000000000E+00  -6.88152611965721E-03
     -2.25804127240500E-21  -6.88152611965721E-03  -3.26254506323888E-17   5.50000000000000E-01   5.50000000000000E-01
      0.00000000000000E+00   0.00000000000000E+00   0.00000000000000E+00   0.00000000000000E+00   0.00000000000000E+00
     -1.71728667650462E-16   7.00000000000000E-01   6.99993118473880E-01   0.00000000000000E+00   0.00000000000000E+00
      6.88152611965722E-03   2.04164849539627E-21   6.88152611965722E-03   2.53255951669567E-16
      5.50000000000000E-01
      0.00000000000000E+00   9.57724374068449E-06   0.00000000000000E+00   0.00000000000000E+00  -9.57724374065329E-03
     -2.69845967411230E-21  -9.57724374065329E-03  -4.92427415309802E-17   6.00000000000000E-01   6.00000000000000E-01
      0.00000000000000E+00   0.00000000000000E+00   0.00000000000000E+00   0.00000000000000E+00   0.00000000000000E+00
     -1.11624829709966E-16   7.00000000000000E-01   6.99990422756259E-01   0.00000000000000E+00   0.00000000000000E+00
      9.57724374065329E-03   2.44876221746670E-21   9.57724374065329E-03   2.27492602610170E-16
      5.75000000000000E-01
      0.00000000000000E+00   1.25425062903113E-05   0.00000000000000E+00   0.00000000000000E+00  -1.25425062903149E-02
     -3.19870052973453E-21  -1.25425062903149E-02  -6.51214669217666E-17   6.50000000000000E-01   6.50000000000000E-01
      0.00000000000000E+00   0.00000000000000E+00   0.00000000000000E+00   0.00000000000000E+00   0.00000000000000E+00
     -4.90867174235473E-17   7.00000000000000E-01   6.99987457493710E-01   0.00000000000000E+00   0.00000000000000E+00
      1.25425062903148E-02   2.93174486539596E-21   1.25425062903148E-02   2.01136363746569E-16
      6.00000000000000E-01
      0.00000000000000E+00   1.57033715106463E-05   0.00000000000000E+00   0.00000000000000E+00  -1.57033715106668E-02
     -3.75097402653708E-21  -1.57033715106668E-02  -8.04160614558709E-17   7.00000000000000E-01   7.00000000000000E-01
      0.00000000000000E+00   0.00000000000000E+00   0.00000000000000E+00   0.00000000000000E+00   0.00000000000000E+00
      1.62799471563615E-17   7.00000000000000E-01   6.99984296628489E-01   0.00000000000000E+00   0.00000000000000E+00
      1.57033715106667E-02   3.48073003289069E-21   1.57033715106667E-02   1.74285914073116E-16
      6.25000000000000E-01
      0.00000000000000E+00   1.89890953168781E-05   0.00000000000000E+00   0.00000000000000E+00  -1.89890953169627E-02
     -4.34428716156779E-21  -1.89890953169627E-02  -9.52562233321013E-17   7.50000000000000E-01   7.50000000000000E-01
      0.00000000000000E+00   0.00000000000000E+00   0.00000000000000E+00   0.00000000000000E+00   0.00000000000000E+00
      8.51160394886912E-17   7.00000000000000E-01   6.99981010904683E-01   0.00000000000000E+00   0.00000000000000E+00
      1.89890953169627E-02   4.08124876933881E-21   1.89890953169627E-02   1.47040608191700E-16
      6.50000000000000E-01
      0.00000000000000E+00   2.23249112006261E-05   0.00000000000000E+00   0.00000000000000E+00  -2.23249112006256E-02
     -4.96357935114218E-21  -2.23249112006256E-02  -1.09761028688149E-16   8.00000000000000E-01   8.00000000000000E-01
      0.00000000000000E+00   0.00000000000000E+00   0.00000000000000E+00   0.00000000000000E+00   0.00000000000000E+00
      1.58361161488640E-16   7.00000000000000E-01   6.99977675088800E-01   0.00000000000000E+00   0.00000000000000E+00
      2.23249112006256E-02   4.71459191730272E-21   2.23249112006256E-02   1.19532199525332E-16
      6.75000000000000E-01
      0.00000000000000E+00   2.56255160695806E-05   0.00000000000000E+00   0.00000000000000E+00  -2.56255160695720E-02
     -5.58965799674617E-21  -2.56255160695720E-02  -1.24053109432623E-16   8.50000000000000E-01   8.50000000000000E-01
      0.00000000000000E+00   0.00000000000000E+00   0.00000000000000E+00   0.00000000000000E+00   0.00000000000000E+00
      2.37265396494479E-16   7.00000000000000E-01   6.99974374483931E-01   0.00000000000000E+00   0.00000000000000E+00
      2.56255160695721E-02   5.35834474841547E-21   2.56255160695721E-02   9.19694405169283E-17
      7.00000000000000E-01
      0.00000000000000E+00   2.87947687466711E-05   0.00000000000000E+00   0.00000000000000E+00  -2.87947687466733E-02
     -6.20032525147952E-21  -2.87947687466733E-02  -1.38269019117002E-16   9.00000000000001E-01   9.00000000000000E-01
      0.00000000000000E+00   0.00000000000000E+00   0.00000000000000E+00   0.00000000000000E+00   0.00000000000000E+00
      3.23206955908484E-16   7.00000000000000E-01   6.99971205231253E-01   0.00000000000000E+00   0.00000000000000E+00
      2.87947687466733E-02   5.98774724599480E-21   2.87947687466733E-02   6.46656194988179E-17
      7.25000000000000E-01
      0.00000000000000E+00   3.17402313584383E-05   0.00000000000000E+00   0.00000000000000E+00  -3.17402313584761E-02
     -6.77409046063697E-21  -3.17402313584761E-02  -1.52555555869428E-16   9.50000000000001E-01   9.50000000000001E-01
      0.00000000000000E+00   0.00000000000000E+00   0.00000000000000E+00   0.00000000000000E+00   0.00000000000000E+00
      4.17186039774469E-16   7.00000000000000E-01   6.99968259768642E-01   0.00000000000000E+00   0.00000000000000E+00
      3.17402313584765E-02   6.57951488398724E-21   3.17402313584765E-02   3.79800745529522E-17
      7.50000000000000E-01
      0.00000000000000E+00   3.43992655205011E-05   0.00000000000000E+00   0.00000000000000E+00  -3.43992655205442E-02
     -7.29583841275029E-21  -3.43992655205442E-02  -1.67047172859783E-16   1.00000000000000E+00   1.00000000000000E+00
      0.00000000000000E+00   0.00000000000000E+00   0.00000000000000E+00   0.00000000000000E+00   0.00000000000000E+00
      5.19280714319687E-16   7.00000000000000E-01   6.99965600734480E-01   0.00000000000000E+00   0.00000000000000E+00
      3.43992655205457E-02   7.11755041923665E-21   3.43992655205457E-02   1.21718323924383E-17
      7.75000000000000E-01
      0.00000000000000E+00   3.67537069910807E-05   0.00000000000000E+00   0.00000000000000E+00  -3.67537069910395E-02
     -7.75996919324130E-21  -3.67537069910395E-02  -1.81841605066734E-16   1.05000000000000E+00   1.05000000000000E+00
      0.00000000000000E+00   0.00000000000000E+00   0.00000000000000E+00   0.00000000000000E+00   0.00000000000000E+00
      6.28634239751345E-16   7.00000000000000E-01   6.99963246293009E-01   0.00000000000000E+00   0.00000000000000E+00
      3.67537069910395E-02   7.59596271820890E-21   3.67537069910395E-02  -1.26916871547837E-17
      8.00000000000000E-01
      0.00000000000000E+00   3.88211560553281E-05   0.00000000000000E+00   0.00000000000000E+00  -3.88211560552959E-02
     -8.16866051419262E-21  -3.88211560552959E-02  -1.96992872786235E-16   1.10000000000000E+00   1.10000000000000E+00
      0.00000000000000E+00   0.00000000000000E+00   0.00000000000000E+00   0.00000000000000E+00   0.00000000000000E+00
      7.43941342151371E-16   7.00000000000000E-01   6.99961178843945E-01   0.00000000000000E+00   0.00000000000000E+00
      3.88211560552956E-02   8.01705750170243E-21   3.88211560552956E-02  -3.66928848392757E-17
      8.25000000000000E-01
      0.00000000000000E+00   4.06365616929810E-05   0.00000000000000E+00   0.00000000000000E+00  -4.06365616929865E-02
     -8.52805606409132E-21  -4.06365616929865E-02  -2.12519184862135E-16   1.15000000000000E+00   1.15000000000000E+00
      0.00000000000000E+00   0.00000000000000E+00   0.00000000000000E+00   0.00000000000000E+00   0.00000000000000E+00
      8.63913557967772E-16   7.00000000000000E-01   6.99959363438307E-01   0.00000000000000E+00   0.00000000000000E+00
      4.06365616929863E-02   8.38726887972083E-21   4.06365616929863E-02  -5.99745585748496E-17
      8.50000000000000E-01
      0.00000000000000E+00   4.22383067908847E-05   0.00000000000000E+00   0.00000000000000E+00  -4.22383067908842E-02
     -8.84532347827016E-21  -4.22383067908842E-02  -2.28414789928252E-16   1.20000000000000E+00   1.20000000000000E+00
      0.00000000000000E+00   0.00000000000000E+00   0.00000000000000E+00   0.00000000000000E+00   0.00000000000000E+00
      9.87487465792313E-16   7.00000000000000E-01   6.99957761693209E-01   0.00000000000000E+00   0.00000000000000E+00
      4.22383067908842E-02   8.71406967178317E-21   4.22383067908842E-02  -8.26804633382992E-17
      8.75000000000000E-01
      0.00000000000000E+00   4.36614738267557E-05   0.00000000000000E+00   0.00000000000000E+00  -4.36614738267011E-02
     -9.12717969786795E-21  -4.36614738267011E-02  -2.44659985767157E-16   1.25000000000000E+00   1.25000000000000E+00
      0.00000000000000E+00   0.00000000000000E+00   0.00000000000000E+00   0.00000000000000E+00   0.00000000000000E+00
      1.11385105311947E-15   7.00000000000000E-01   6.99956338526173E-01   0.00000000000000E+00   0.00000000000000E+00
      4.36614738267016E-02   9.00443996304636E-21   4.36614738267016E-02  -1.04932387674365E-16
      9.00000000000000E-01
      0.00000000000000E+00   4.49357319114757E-05   0.00000000000000E+00   0.00000000000000E+00  -4.49357319114274E-02
     -9.37938362019521E-21  -4.49357319114274E-02  -2.61228123773324E-16   1.30000000000000E+00   1.30000000000000E+00
      0.00000000000000E+00   0.00000000000000E+00   0.00000000000000E+00   0.00000000000000E+00   0.00000000000000E+00
      1.24240137405676E-15   7.00000000000000E-01   6.99955064268088E-01   0.00000000000000E+00   0.00000000000000E+00
      4.49357319114275E-02   9.26434874979154E-21   4.49357319114275E-02  -1.26826622886371E-16
      9.25000000000000E-01
      0.00000000000000E+00   4.60853383258378E-05   0.00000000000000E+00   0.00000000000000E+00  -4.60853382104101E-02
     -9.60668495481170E-21  -4.60853382104101E-02  -2.78090066018941E-16   1.35000000000000E+00   1.35000000000000E+00
      0.00000000000000E+00   0.00000000000000E+00   0.00000000000000E+00   0.00000000000000E+00   0.00000000000000E+00
      1.37269205845074E-15   7.00000000000000E-01   6.99953914661674E-01   0.00000000000000E+00   0.00000000000000E+00
      4.60853385949391E-02   9.49870845098670E-21   4.60853385949391E-02  -1.48437324991341E-16
      9.50000000000001E-01
      0.00000000000000E+00   4.71298740820857E-05   0.00000000000000E+00   0.00000000000000E+00  -4.71298740343479E-02
     -9.81294121331039E-21  -4.71298740343479E-02  -2.95216822739383E-16   1.40000000000000E+00   1.40000000000000E+00
      0.00000000000000E+00   0.00000000000000E+00   0.00000000000000E+00   0.00000000000000E+00   0.00000000000000E+00
      1.50438966514863E-15   7.00000000000000E-01   6.99952870125918E-01   0.00000000000000E+00   0.00000000000000E+00
      4.71298742142912E-02   9.71150173601676E-21   4.71298742142912E-02  -1.69821227539891E-16
      9.75000000000001E-01
      0.00000000000000E+00   4.80851129363151E-05   0.00000000000000E+00   0.00000000000000E+00  -4.80851129194669E-02
     -1.00012739755398E-20  -4.80851129194669E-02  -3.12580989024046E-16   1.45000000000000E+00   1.45000000000000E+00
      0.00000000000000E+00   0.00000000000000E+00   0.00000000000000E+00   0.00000000000000E+00   0.00000000000000E+00
      1.63724156123480E-15   7.00000000000000E-01   6.99951914887064E-01   0.00000000000000E+00   0.00000000000000E+00
      4.80851130042362E-02   9.90594623375567E-21   4.80851130042362E-02  -1.91021853847873E-16
      1.00000000000000E+00
      0.00000000000000E+00   4.89638066267188E-05   0.00000000000000E+00   0.00000000000000E+00  -4.89638066228310E-02
     -1.01742157250483E-20  -4.89638066228310E-02  -3.30157430019052E-16   1.50000000000000E+00   1.50000000000000E+00
      0.00000000000000E+00   0.00000000000000E+00   0.00000000000000E+00   0.00000000000000E+00   0.00000000000000E+00
      1.77105329487449E-15   7.00000000000000E-01   6.99951036193373E-01   0.00000000000000E+00   0.00000000000000E+00
      4.89638066631405E-02   1.00846488805382E-20   4.89638066631405E-02  -2.12072831736644E-16
}
