DF-ISE text

Info {
  version   = 1.0
  type      = xyplot
  datasets  = [
    "time"
    "Source OuterVoltage" "Source InnerVoltage" "Source QuasiFermiPotential" "Source DisplacementCurrent" "Source eCurrent"
    "Source hCurrent" "Source TotalCurrent" "Source Charge" "Gate OuterVoltage" "Gate InnerVoltage"
    "Gate QuasiFermiPotential" "Gate DisplacementCurrent" "Gate eCurrent" "Gate hCurrent" "Gate TotalCurrent"
    "Gate Charge" "Drain OuterVoltage" "Drain InnerVoltage" "Drain QuasiFermiPotential" "Drain DisplacementCurrent"
    "Drain eCurrent" "Drain hCurrent" "Drain TotalCurrent" "Drain Charge" ]
  functions = [
    Time
    OuterVoltage InnerVoltage QuasiFermiPotential DisplacementCurrent eCurrent
    hCurrent TotalCurrent Charge OuterVoltage InnerVoltage
    QuasiFermiPotential DisplacementCurrent eCurrent hCurrent TotalCurrent
    Charge OuterVoltage InnerVoltage QuasiFermiPotential DisplacementCurrent
    eCurrent hCurrent TotalCurrent Charge ]
}

Data {
      0.00000000000000E+00
      0.00000000000000E+00   0.00000000000000E+00   0.00000000000000E+00   0.00000000000000E+00   1.59015525840345E-22
      1.03415030928460E-16   1.03415189943986E-16  -3.88129234498842E-16   5.00000000000000E-01   5.00000000000000E-01
      0.00000000000000E+00   0.00000000000000E+00   0.00000000000000E+00   0.00000000000000E+00   0.00000000000000E+00
      7.80188197468180E-16  -1.00000000000000E-02  -1.00000000000000E-02   0.00000000000000E+00   0.00000000000000E+00
     -1.42574059595738E-22  -1.03415047251121E-16  -1.03415189825180E-16  -3.92355746766538E-16
      2.50000000000000E-02
      0.00000000000000E+00   0.00000000000000E+00   0.00000000000000E+00   0.00000000000000E+00   1.60412360835423E-22
      5.48127724635256E-16   5.48127885047617E-16  -3.67258362335934E-16   4.50000000000000E-01   4.50000000000000E-01
      0.00000000000000E+00   0.00000000000000E+00   0.00000000000000E+00   0.00000000000000E+00   0.00000000000000E+00
      7.38442410356409E-16  -1.00000000000000E-02  -1.00000000000000E-02   0.00000000000000E+00   0.00000000000000E+00
     -1.41978684175881E-22  -5.48127742744050E-16  -5.48127884722734E-16  -3.71486919708098E-16
      5.00000000000000E-02
      0.00000000000000E+00   0.00000000000000E+00   0.00000000000000E+00   0.00000000000000E+00   1.60782845475495E-22
      2.90247488329608E-15   2.90247504407892E-15  -3.46376138827316E-16   4.00000000000000E-01   4.00000000000000E-01
      0.00000000000000E+00   0.00000000000000E+00   0.00000000000000E+00   0.00000000000000E+00   0.00000000000000E+00
      6.96679369229950E-16  -1.00000000000000E-02  -1.00000000000000E-02   0.00000000000000E+00   0.00000000000000E+00
     -1.41426883798239E-22  -2.90247490120381E-15  -2.90247504263070E-15  -3.50607203064623E-16
      7.50000000000000E-02
      0.00000000000000E+00   0.00000000000000E+00   0.00000000000000E+00   0.00000000000000E+00   1.59039727366553E-22
      1.53495586141185E-14   1.53495587731583E-14  -3.25480262056130E-16   3.50000000000000E-01   3.50000000000000E-01
      0.00000000000000E+00   0.00000000000000E+00   0.00000000000000E+00   0.00000000000000E+00   0.00000000000000E+00
      6.54890507173539E-16  -1.00000000000000E-02  -1.00000000000000E-02   0.00000000000000E+00   0.00000000000000E+00
     -1.42428352154916E-22  -1.53495586274006E-14  -1.53495587698290E-14  -3.29714417468465E-16
      1.00000000000000E-01
      0.00000000000000E+00  -9.18447372075268E-17   0.00000000000000E+00   0.00000000000000E+00   1.56731730262526E-22
      8.10477195453419E-14   8.10477197020737E-14  -3.04567521277801E-16   3.00000000000000E-01   3.00000000000000E-01
      0.00000000000000E+00   0.00000000000000E+00   0.00000000000000E+00   0.00000000000000E+00   0.00000000000000E+00
      6.13068833342995E-16  -1.00000000000000E-02  -9.99999999999992E-03   0.00000000000000E+00   0.00000000000000E+00
     -1.43772492198740E-22  -8.10477195331233E-14  -8.10477196768957E-14  -3.08805521516198E-16
      1.25000000000000E-01
      0.00000000000000E+00  -4.59223686037634E-16   0.00000000000000E+00   0.00000000000000E+00   1.56116092165055E-22
      4.27128608924470E-13   4.27128609080586E-13  -2.83633678895836E-16   2.50000000000000E-01   2.50000000000000E-01
      0.00000000000000E+00   0.00000000000000E+00   0.00000000000000E+00   0.00000000000000E+00   0.00000000000000E+00
      5.71205974068195E-16  -1.00000000000000E-02  -9.99999999999956E-03   0.00000000000000E+00   0.00000000000000E+00
     -1.43903242183038E-22  -4.27128608716504E-13  -4.27128608860407E-13  -2.87876514493637E-16
      1.50000000000000E-01
      0.00000000000000E+00  -2.20427369298064E-15   0.00000000000000E+00   0.00000000000000E+00   1.57050132541765E-22
      2.24577278238603E-12   2.24577278254308E-12  -2.62673082346755E-16   2.00000000000000E-01   2.00000000000000E-01
      0.00000000000000E+00   0.00000000000000E+00   0.00000000000000E+00   0.00000000000000E+00   0.00000000000000E+00
      5.29290934001235E-16  -1.00000000000000E-02  -9.99999999999772E-03   0.00000000000000E+00   0.00000000000000E+00
     -1.42974015698086E-22  -2.24577278039340E-12  -2.24577278053638E-12  -2.66922083998127E-16
      1.75000000000000E-01
      0.00000000000000E+00  -1.17561263625634E-14   0.00000000000000E+00   0.00000000000000E+00   1.57200870787405E-22
      1.17739342700216E-11   1.17739342701788E-11  -2.41678019669764E-16   1.50000000000000E-01   1.50000000000000E-01
      0.00000000000000E+00   0.00000000000000E+00   0.00000000000000E+00   0.00000000000000E+00   0.00000000000000E+00
      4.87308765021522E-16  -1.00000000000000E-02  -9.99999999998826E-03   0.00000000000000E+00   0.00000000000000E+00
     -1.42544885959194E-22  -1.17739342509848E-11  -1.17739342511273E-11  -2.45935020713491E-16
      2.00000000000000E-01
      0.00000000000000E+00  -6.15359739290429E-14   0.00000000000000E+00   0.00000000000000E+00   1.53858079344075E-22
      6.15037901790030E-11   6.15037901791569E-11  -2.20637684146147E-16   1.00000000000000E-01   1.00000000000000E-01
      0.00000000000000E+00   0.00000000000000E+00   0.00000000000000E+00   0.00000000000000E+00   0.00000000000000E+00
      4.45238534207359E-16  -1.00000000000000E-02  -9.99999999993848E-03   0.00000000000000E+00   0.00000000000000E+00
     -1.44444216229032E-22  -6.15037899850128E-11  -6.15037899851573E-11  -2.24905282072962E-16
      2.25000000000000E-01
      0.00000000000000E+00  -3.19803374956608E-13   0.00000000000000E+00   0.00000000000000E+00   1.49906274941259E-22
      3.19782965375817E-10   3.19782965375967E-10  -1.99536488295257E-16   5.00000000000000E-02   5.00000000000000E-02
      0.00000000000000E+00   0.00000000000000E+00   0.00000000000000E+00   0.00000000000000E+00   0.00000000000000E+00
      4.03049949832165E-16  -1.00000000000000E-02  -9.99999999968021E-03   0.00000000000000E+00   0.00000000000000E+00
     -1.46708380198116E-22  -3.19782963215491E-10  -3.19782963215638E-10  -2.03818473818185E-16
      2.50000000000000E-01
      0.00000000000000E+00  -1.65247051183782E-12   0.00000000000000E+00   0.00000000000000E+00   1.48203398883994E-22
      1.65244280443323E-09   1.65244280443338E-09  -1.78351281772297E-16   5.55111512312578E-17   5.55111512312578E-17
      0.00000000000000E+00   0.00000000000000E+00   0.00000000000000E+00   0.00000000000000E+00   0.00000000000000E+00
      3.60697440331350E-16  -1.00000000000000E-02  -9.99999999834754E-03   0.00000000000000E+00   0.00000000000000E+00
     -1.47393406769376E-22  -1.65244277742658E-09  -1.65244277742673E-09  -1.82653351428050E-16
      2.75000000000000E-01
      0.00000000000000E+00  -8.46661525473865E-12   0.00000000000000E+00   0.00000000000000E+00   1.47547733972922E-22
      8.46655131283654E-09   8.46655131283669E-09  -1.57046769695586E-16  -4.99999999999999E-02  -5.00000000000000E-02
      0.00000000000000E+00   0.00000000000000E+00   0.00000000000000E+00   0.00000000000000E+00   0.00000000000000E+00
      3.18108954245472E-16  -1.00000000000000E-02  -9.99999999153340E-03   0.00000000000000E+00   0.00000000000000E+00
     -1.47303341963511E-22  -8.46655092228532E-09  -8.46655092228546E-09  -1.61377699627924E-16
      3.00000000000000E-01
      0.00000000000000E+00  -4.28457535967856E-11   0.00000000000000E+00   0.00000000000000E+00   1.47071614012007E-22
      4.28457905057539E-08   4.28457905057540E-08  -1.35568328144898E-16  -1.00000000000000E-01  -1.00000000000000E-01
      0.00000000000000E+00   0.00000000000000E+00   0.00000000000000E+00   0.00000000000000E+00   0.00000000000000E+00
      2.75162325884564E-16  -1.00000000000000E-02  -9.99999995715417E-03   0.00000000000000E+00   0.00000000000000E+00
     -1.47006394228922E-22  -4.28457905057591E-08  -4.28457905057592E-08  -1.39941776832784E-16
      3.25000000000000E-01
      0.00000000000000E+00  -2.12589982337934E-10   0.00000000000000E+00   0.00000000000000E+00   1.46628262766739E-22
      2.12589981685318E-07   2.12589981685318E-07  -1.13832929506724E-16  -1.50000000000000E-01  -1.50000000000000E-01
      0.00000000000000E+00   0.00000000000000E+00   0.00000000000000E+00   0.00000000000000E+00   0.00000000000000E+00
      2.31627880060511E-16  -1.00000000000000E-02  -9.99999978741003E-03   0.00000000000000E+00   0.00000000000000E+00
     -1.46584597518271E-22  -2.12589981685351E-07  -2.12589981685351E-07  -1.18269472988926E-16
      3.50000000000000E-01
      0.00000000000000E+00  -1.01760846104875E-09   0.00000000000000E+00   0.00000000000000E+00   1.46115702511976E-22
      1.01760840620765E-06   1.01760840620765E-06  -9.17285452800193E-17  -2.00000000000000E-01  -2.00000000000000E-01
      0.00000000000000E+00   0.00000000000000E+00   0.00000000000000E+00   0.00000000000000E+00   0.00000000000000E+00
      1.87008823899128E-16  -1.00000000000000E-02  -9.99999898239155E-03   0.00000000000000E+00   0.00000000000000E+00
     -1.46074724210105E-22  -1.01760840620767E-06  -1.01760840620767E-06  -9.62544958980286E-17
      3.75000000000000E-01
      0.00000000000000E+00  -4.51327307202796E-09   0.00000000000000E+00   0.00000000000000E+00   1.45500041066116E-22
      4.51327307605921E-06   4.51327307605921E-06  -6.91700292308916E-17  -2.50000000000000E-01  -2.50000000000000E-01
      0.00000000000000E+00   0.00000000000000E+00   0.00000000000000E+00   0.00000000000000E+00   0.00000000000000E+00
      1.40075599390278E-16  -1.00000000000000E-02  -9.99999548672694E-03   0.00000000000000E+00   0.00000000000000E+00
     -1.45451932861943E-22  -4.51327307605886E-06  -4.51327307605886E-06  -7.37999349546739E-17
      4.00000000000000E-01
      0.00000000000000E+00  -1.68733144011784E-08   0.00000000000000E+00   0.00000000000000E+00   1.44742978644515E-22
      1.68733143254473E-05   1.68733143254473E-05  -4.63187278904764E-17  -3.00000000000000E-01  -3.00000000000000E-01
      0.00000000000000E+00   0.00000000000000E+00   0.00000000000000E+00   0.00000000000000E+00   0.00000000000000E+00
      8.77920558348842E-17  -1.00000000000000E-02  -9.99998312668561E-03   0.00000000000000E+00   0.00000000000000E+00
     -1.44665948057921E-22  -1.68733143253228E-05  -1.68733143253228E-05  -5.10058419930306E-17
      4.25000000000000E-01
      0.00000000000000E+00  -4.64776558231674E-08   0.00000000000000E+00   0.00000000000000E+00   1.43796758510499E-22
      4.64776557892050E-05   4.64776557892050E-05  -2.38090841720953E-17  -3.50000000000000E-01  -3.50000000000000E-01
      0.00000000000000E+00   0.00000000000000E+00   0.00000000000000E+00   0.00000000000000E+00   0.00000000000000E+00
      2.49040803326547E-17  -1.00000000000000E-02  -9.99995352234419E-03   0.00000000000000E+00   0.00000000000000E+00
     -1.43651820976503E-22  -4.64776557892084E-05  -4.64776557892084E-05  -2.84324387100667E-17
      4.50000000000000E-01
      0.00000000000000E+00  -9.14723685178136E-08   0.00000000000000E+00   0.00000000000000E+00   1.42662432398142E-22
      9.14723684709590E-05   9.14723684709590E-05  -2.22885638973254E-18  -4.00000000000000E-01  -4.00000000000000E-01
      0.00000000000000E+00   0.00000000000000E+00   0.00000000000000E+00   0.00000000000000E+00   0.00000000000000E+00
     -5.21360686112809E-17  -1.00000000000000E-02  -9.99990852763150E-03   0.00000000000000E+00   0.00000000000000E+00
     -1.42420898031478E-22  -9.14723684709658E-05  -9.14723684709658E-05  -6.69567367344418E-18
      4.75000000000000E-01
      0.00000000000000E+00  -1.41946072765133E-07   0.00000000000000E+00   0.00000000000000E+00   1.41469303522194E-22
      1.41946073607814E-04   1.41946073607814E-04   1.84376549213556E-17  -4.50000000000000E-01  -4.50000000000000E-01
      0.00000000000000E+00   0.00000000000000E+00   0.00000000000000E+00   0.00000000000000E+00   0.00000000000000E+00
     -1.42303063811323E-16  -1.00000000000000E-02  -9.99985805392716E-03   0.00000000000000E+00   0.00000000000000E+00
     -1.41128610569389E-22  -1.41946071660245E-04  -1.41946071660245E-04   1.41556564833344E-17
      5.00000000000000E-01
      0.00000000000000E+00  -1.91336623462850E-07   0.00000000000000E+00   0.00000000000000E+00   1.40371751049022E-22
      1.91336623509557E-04   1.91336623509557E-04   3.84605297924554E-17  -5.00000000000000E-01  -5.00000000000001E-01
      0.00000000000000E+00   0.00000000000000E+00   0.00000000000000E+00   0.00000000000000E+00   0.00000000000000E+00
     -2.42905705765802E-16  -1.00000000000000E-02  -9.99980866337655E-03   0.00000000000000E+00   0.00000000000000E+00
     -1.39945194875719E-22  -1.91336623368001E-04  -1.91336623368001E-04   3.43630024152713E-17
      5.25000000000000E-01
      0.00000000000000E+00  -2.37102215120785E-07   0.00000000000000E+00   0.00000000000000E+00   1.39443414630832E-22
      2.37102215137841E-04   2.37102215137841E-04   5.80754237163375E-17  -5.50000000000000E-01  -5.50000000000000E-01
      0.00000000000000E+00   0.00000000000000E+00   0.00000000000000E+00   0.00000000000000E+00   0.00000000000000E+00
     -3.51523366591716E-16  -1.00000000000000E-02  -9.99976289778489E-03   0.00000000000000E+00   0.00000000000000E+00
     -1.38945202498610E-22  -2.37102215123901E-04  -2.37102215123901E-04   5.41522075649415E-17
      5.50000000000000E-01
      0.00000000000000E+00  -2.78635810234973E-07   0.00000000000000E+00   0.00000000000000E+00   1.38685748363054E-22
      2.78635810231905E-04   2.78635810231905E-04   7.74468126804705E-17  -6.00000000000000E-01  -6.00000000000000E-01
      0.00000000000000E+00   0.00000000000000E+00   0.00000000000000E+00   0.00000000000000E+00   0.00000000000000E+00
     -4.66245597205083E-16  -1.00000000000000E-02  -9.99972136418978E-03   0.00000000000000E+00   0.00000000000000E+00
     -1.38129260597967E-22  -2.78635810230049E-04  -2.78635810230049E-04   7.36842931961262E-17
      5.75000000000000E-01
      0.00000000000000E+00  -3.16117592106988E-07   0.00000000000000E+00   0.00000000000000E+00   1.38071768540174E-22
      3.16117592150631E-04   3.16117592150631E-04   9.66838898008006E-17  -6.50000000000000E-01  -6.50000000000000E-01
      0.00000000000000E+00   0.00000000000000E+00   0.00000000000000E+00   0.00000000000000E+00   0.00000000000000E+00
     -5.85615689523194E-16  -1.00000000000000E-02  -9.99968388240791E-03   0.00000000000000E+00   0.00000000000000E+00
     -1.37468050092233E-22  -3.16117592150383E-04  -3.16117592150383E-04   9.30677520339695E-17
      6.00000000000000E-01
      0.00000000000000E+00  -3.49997450334070E-07   0.00000000000000E+00   0.00000000000000E+00   1.37570643128943E-22
      3.49997450327709E-04   3.49997450327709E-04   1.15857034248731E-16  -7.00000000000000E-01  -7.00000000000000E-01
      0.00000000000000E+00   0.00000000000000E+00   0.00000000000000E+00   0.00000000000000E+00   0.00000000000000E+00
     -7.08549796673174E-16  -1.00000000000000E-02  -9.99965000254959E-03   0.00000000000000E+00   0.00000000000000E+00
     -1.36928497572605E-22  -3.49997450327701E-04  -3.49997450327701E-04   1.12373552316812E-16
      6.25000000000000E-01
      0.00000000000000E+00  -3.80771663085948E-07   0.00000000000000E+00   0.00000000000000E+00   1.37156238079620E-22
      3.80771663124234E-04   3.80771663124234E-04   1.35010346751686E-16  -7.50000000000000E-01  -7.50000000000000E-01
      0.00000000000000E+00   0.00000000000000E+00   0.00000000000000E+00   0.00000000000000E+00   0.00000000000000E+00
     -8.34251855891904E-16  -1.00000000000000E-02  -9.99961922833693E-03   0.00000000000000E+00   0.00000000000000E+00
     -1.36482626145572E-22  -3.80771663124196E-04  -3.80771663124196E-04   1.31646927019959E-16
      6.50000000000000E-01
      0.00000000000000E+00  -4.08896476350434E-07   0.00000000000000E+00   0.00000000000000E+00   1.36808449225814E-22
      4.08896476299954E-04   4.08896476299954E-04   1.54170648148601E-16  -8.00000000000000E-01  -8.00000000000000E-01
      0.00000000000000E+00   0.00000000000000E+00   0.00000000000000E+00   0.00000000000000E+00   0.00000000000000E+00
     -9.62137492282799E-16  -1.00000000000000E-02  -9.99959110352366E-03   0.00000000000000E+00   0.00000000000000E+00
     -1.36108894886479E-22  -4.08896476300020E-04  -4.08896476300020E-04   1.50915995803835E-16
      6.75000000000000E-01
      0.00000000000000E+00  -4.34762697199306E-07   0.00000000000000E+00   0.00000000000000E+00   1.36512306885575E-22
      4.34762697235389E-04   4.34762697235389E-04   1.73353649375117E-16  -8.50000000000000E-01  -8.50000000000000E-01
      0.00000000000000E+00   0.00000000000000E+00   0.00000000000000E+00   0.00000000000000E+00   0.00000000000000E+00
     -1.09177405267218E-15  -1.00000000000000E-02  -9.99956523730281E-03   0.00000000000000E+00   0.00000000000000E+00
     -1.35791233619699E-22  -4.34762697235384E-04  -4.34762697235384E-04   1.70197754336139E-16
      7.00000000000000E-01
      0.00000000000000E+00  -4.58695177069810E-07   0.00000000000000E+00   0.00000000000000E+00   1.36256730186767E-22
      4.58695177062119E-04   4.58695177062119E-04   1.92568033537605E-16  -9.00000000000001E-01  -9.00000000000000E-01
      0.00000000000000E+00   0.00000000000000E+00   0.00000000000000E+00   0.00000000000000E+00   0.00000000000000E+00
     -1.22283678052996E-15  -1.00000000000000E-02  -9.99954130482295E-03   0.00000000000000E+00   0.00000000000000E+00
     -1.35517719887806E-22  -4.58695177062103E-04  -4.58695177062103E-04   1.89502076052224E-16
      7.25000000000000E-01
      0.00000000000000E+00  -4.80960918899619E-07   0.00000000000000E+00   0.00000000000000E+00   1.36033374502801E-22
      4.80960862023249E-04   4.80960862023249E-04   2.11818094501315E-16  -9.50000000000001E-01  -9.50000000000001E-01
      0.00000000000000E+00   0.00000000000000E+00   0.00000000000000E+00   0.00000000000000E+00   0.00000000000000E+00
     -1.35507797636257E-15  -1.00000000000000E-02  -9.99951903908112E-03   0.00000000000000E+00   0.00000000000000E+00
     -1.35279533460709E-22  -4.80960977275525E-04  -4.80960977275525E-04   2.08834320912396E-16
      7.50000000000000E-01
      0.00000000000000E+00  -5.01779010135161E-07   0.00000000000000E+00   0.00000000000000E+00   1.35836268303253E-22
      5.01778981607488E-04   5.01778981607488E-04   2.31105419754793E-16  -1.00000000000000E+00  -1.00000000000000E+00
      0.00000000000000E+00   0.00000000000000E+00   0.00000000000000E+00   0.00000000000000E+00   0.00000000000000E+00
     -1.48830559813313E-15  -1.00000000000000E-02  -9.99949822098988E-03   0.00000000000000E+00   0.00000000000000E+00
     -1.35069753029906E-22  -5.01779039411862E-04  -5.01779039411862E-04   2.28197013391354E-16
      7.75000000000000E-01
      0.00000000000000E+00  -5.21329830258366E-07   0.00000000000000E+00   0.00000000000000E+00   1.35660488553406E-22
      5.21329815574719E-04   5.21329815574719E-04   2.50429956010485E-16  -1.05000000000000E+00  -1.05000000000000E+00
      0.00000000000000E+00   0.00000000000000E+00   0.00000000000000E+00   0.00000000000000E+00   0.00000000000000E+00
     -1.62236840725232E-15  -1.00000000000000E-02  -9.99947867016976E-03   0.00000000000000E+00   0.00000000000000E+00
     -1.34883396087700E-22  -5.21329845400380E-04  -5.21329845400380E-04   2.47590915003485E-16
      8.00000000000000E-01
      0.00000000000000E+00  -5.39762788613934E-07   0.00000000000000E+00   0.00000000000000E+00   1.35502390080455E-22
      5.39762780831078E-04   5.39762780831078E-04   2.69790681871306E-16  -1.10000000000000E+00  -1.10000000000000E+00
      0.00000000000000E+00   0.00000000000000E+00   0.00000000000000E+00   0.00000000000000E+00   0.00000000000000E+00
     -1.75714556640448E-15  -1.00000000000000E-02  -9.99946023721140E-03   0.00000000000000E+00   0.00000000000000E+00
     -1.34716463783943E-22  -5.39762796686668E-04  -5.39762796686668E-04   2.67015708880433E-16
      8.25000000000000E-01
      0.00000000000000E+00  -5.57202552492808E-07   0.00000000000000E+00   0.00000000000000E+00   1.35359107795010E-22
      5.57202548205414E-04   5.57202548205414E-04   2.89186031354872E-16  -1.15000000000000E+00  -1.15000000000000E+00
      0.00000000000000E+00   0.00000000000000E+00   0.00000000000000E+00   0.00000000000000E+00   0.00000000000000E+00
     -1.89253925778365E-15  -1.00000000000000E-02  -9.99944279744752E-03   0.00000000000000E+00   0.00000000000000E+00
     -1.34565823029488E-22  -5.57202556881739E-04  -5.57202556881739E-04   2.86470436668021E-16
      8.50000000000000E-01
      0.00000000000000E+00  -5.73753964315717E-07   0.00000000000000E+00   0.00000000000000E+00   1.35228365255294E-22
      5.73753961909900E-04   5.73753961909900E-04   3.08614159822356E-16  -1.20000000000000E+00  -1.20000000000000E+00
      0.00000000000000E+00   0.00000000000000E+00   0.00000000000000E+00   0.00000000000000E+00   0.00000000000000E+00
     -2.02846936280617E-15  -1.00000000000000E-02  -9.99942624603570E-03   0.00000000000000E+00   0.00000000000000E+00
     -1.34428985157891E-22  -5.73753966785204E-04  -5.73753966785204E-04   3.05953777539640E-16
      8.75000000000000E-01
      0.00000000000000E+00  -5.89505895622033E-07   0.00000000000000E+00   0.00000000000000E+00   1.35108333824835E-22
      5.89505894273602E-04   5.89505894273602E-04   3.28073109914483E-16  -1.25000000000000E+00  -1.25000000000000E+00
      0.00000000000000E+00   0.00000000000000E+00   0.00000000000000E+00   0.00000000000000E+00   0.00000000000000E+00
     -2.16486956560360E-15  -1.00000000000000E-02  -9.99941049410439E-03   0.00000000000000E+00   0.00000000000000E+00
     -1.34303949143444E-22  -5.89505897078258E-04  -5.89505897078258E-04   3.25464226122001E-16
      9.00000000000000E-01
      0.00000000000000E+00  -6.04534264628621E-07   0.00000000000000E+00   0.00000000000000E+00   1.34997529071805E-22
      6.04534263837259E-04   6.04534263837259E-04   3.47560913821792E-16  -1.30000000000000E+00  -1.30000000000000E+00
      0.00000000000000E+00   0.00000000000000E+00   0.00000000000000E+00   0.00000000000000E+00   0.00000000000000E+00
     -2.30168445411120E-15  -1.00000000000000E-02  -9.99939546573539E-03   0.00000000000000E+00   0.00000000000000E+00
     -1.34189088188456E-22  -6.04534265483739E-04  -6.04534265483739E-04   3.45000205360338E-16
      9.25000000000000E-01
      0.00000000000000E+00  -6.18904405824051E-07   0.00000000000000E+00   0.00000000000000E+00   1.34894734020401E-22
      6.18904405277598E-04   6.18904405277598E-04   3.67075654868736E-16  -1.35000000000000E+00  -1.35000000000000E+00
      0.00000000000000E+00   0.00000000000000E+00   0.00000000000000E+00   0.00000000000000E+00   0.00000000000000E+00
     -2.43886733110990E-15  -1.00000000000000E-02  -9.99938109559419E-03   0.00000000000000E+00   0.00000000000000E+00
     -1.34083066313019E-22  -6.18904406261078E-04  -6.18904406261078E-04   3.64560137264881E-16
      9.50000000000001E-01
      0.00000000000000E+00  -6.32672940111139E-07   0.00000000000000E+00   0.00000000000000E+00   1.34798941737990E-22
      6.32672939766609E-04   6.32672939766609E-04   3.86615503036267E-16  -1.40000000000000E+00  -1.40000000000000E+00
      0.00000000000000E+00   0.00000000000000E+00   0.00000000000000E+00   0.00000000000000E+00   0.00000000000000E+00
     -2.57637853850079E-15  -1.00000000000000E-02  -9.99936732705990E-03   0.00000000000000E+00   0.00000000000000E+00
     -1.33984776142158E-22  -6.32672940362969E-04  -6.32672940362969E-04   3.84142486253040E-16
      9.75000000000001E-01
      0.00000000000000E+00  -6.45889260487420E-07   0.00000000000000E+00   0.00000000000000E+00   1.34709311934049E-22
      6.45889260307893E-04   6.45889260307893E-04   4.06178733798841E-16  -1.45000000000000E+00  -1.45000000000000E+00
      0.00000000000000E+00   0.00000000000000E+00   0.00000000000000E+00   0.00000000000000E+00   0.00000000000000E+00
     -2.71418415826183E-15  -1.00000000000000E-02  -9.99935411073953E-03   0.00000000000000E+00   0.00000000000000E+00
     -1.33893291909686E-22  -6.45889260674082E-04  -6.45889260674082E-04   4.03745784606908E-16
      1.00000000000000E+00
      0.00000000000000E+00  -6.58596719505750E-07   0.00000000000000E+00   0.00000000000000E+00   1.34625137798529E-22
      6.58596719453103E-04   6.58596719453103E-04   4.25763736331794E-16  -1.50000000000000E+00  -1.50000000000000E+00
      0.00000000000000E+00   0.00000000000000E+00   0.00000000000000E+00   0.00000000000000E+00   0.00000000000000E+00
     -2.85225499383741E-15  -1.00000000000000E-02  -9.99934140328042E-03   0.00000000000000E+00   0.00000000000000E+00
     -1.33807833544261E-22  -6.58596719680977E-04  -6.58596719680977E-04   4.23368646260347E-16
}
