DF-ISE text

Info {
  version   = 1.0
  type      = xyplot
  datasets  = [
    "frequency"
    "v(G)" "v(D)" "v(S)" "a(G,G)" "c(G,G)"
    "a(G,D)" "c(G,D)" "a(G,S)" "c(G,S)" "a(D,G)"
    "c(D,G)" "a(D,D)" "c(D,D)" "a(D,S)" "c(D,S)"
    "a(S,G)" "c(S,G)" "a(S,D)" "c(S,D)" "a(S,S)"
    "c(S,S)" ]
  functions = [
    Frequency
    Voltage Voltage Voltage Admittance Capacitance
    Admittance Capacitance Admittance Capacitance Admittance
    Capacitance Admittance Capacitance Admittance Capacitance
    Admittance Capacitance Admittance Capacitance Admittance
    Capacitance ]
}

Data {
      1.00000000000000E+04
      5.00000000000000E-01   0.00000000000000E+00   0.00000000000000E+00  -4.70953443076077E-12   8.39871818369576E-16
     -3.59978824743705E-19  -4.19935909184757E-16  -3.63929638657869E-19  -4.19935909184794E-16   5.16807906476799E-17
     -4.19935909184732E-16   0.00000000000000E+00   4.22718033011070E-16  -1.87000321942710E-14  -2.78212382635075E-18
     -5.80640091405927E-17  -4.19935909187879E-16  -1.86997325813084E-14  -2.78212382651160E-18  -4.55761396525235E-13
      4.22718033012052E-16
      1.00000000000000E+04
      4.50000000000000E-01   0.00000000000000E+00   0.00000000000000E+00  -4.70953443076077E-12   8.41718450418266E-16
     -2.83045636097925E-19  -4.20859225209263E-16  -2.82988544697652E-19  -4.20859225209239E-16  -1.51449063342266E-16
     -4.20859225209197E-16   6.07681862033647E-13   4.23663404058139E-16  -9.86575196064570E-14  -2.80417884879548E-18
     -2.44342575018884E-16  -4.20859225209358E-16  -9.86589723623747E-14  -2.80417884882100E-18   0.00000000000000E+00
      4.23663404058266E-16
      1.00000000000000E+04
      4.00000000000000E-01   0.00000000000000E+00   0.00000000000000E+00  -4.70953443076077E-12   8.43698977057268E-16
     -2.40443128207965E-19  -4.21849488528659E-16  -2.40454816370994E-19  -4.21849488528681E-16  -1.37046964798591E-16
     -4.21849488528615E-16   1.51920465508412E-13   4.24677555539235E-16  -5.19581716483722E-13  -2.82806701057565E-18
     -1.76198225770917E-16  -4.21849488528618E-16  -5.19582204916047E-13  -2.82806701057294E-18   4.55761396525235E-13
      4.24677555539245E-16
      1.00000000000000E+04
      3.50000000000000E-01   0.00000000000000E+00   0.00000000000000E+00  -4.70953443076077E-12   8.45876339040546E-16
     -2.50744210625101E-19  -4.22938169520271E-16  -2.50905117653861E-19  -4.22938169520322E-16  -1.53544949631782E-16
     -4.22938169520308E-16   2.73456837915141E-12   4.25792726956536E-16  -2.73088639566734E-12  -2.85455743621377E-18
     -7.09985424388594E-17  -4.22938169520342E-16  -2.73088593037252E-12  -2.85455743622229E-18   3.03840931016824E-12
      4.25792726956583E-16
      1.00000000000000E+04
      3.00000000000000E-01   0.00000000000000E+00   0.00000000000000E+00  -4.70953443076077E-12   8.48340381128976E-16
     -3.18391384268413E-19  -4.24170190564427E-16  -3.18449068371809E-19  -4.24170190564513E-16  -8.42991906672521E-18
     -4.24170190564368E-16   1.42805237577907E-11   4.27055004878458E-16  -1.43198274288186E-11  -2.88481431410203E-18
     -5.10715065221154E-17  -4.24170190564454E-16  -1.43198278564590E-11  -2.88481431410198E-18   1.42805237577907E-11
      4.27055004878536E-16
      1.00000000000000E+04
      2.50000000000000E-01   0.00000000000000E+00   0.00000000000000E+00  -4.70953443076077E-12   8.51211257606854E-16
     -3.12629704709974E-19  -4.25605628803167E-16  -3.12677950067798E-19  -4.25605628803636E-16   1.35627039877830E-16
     -4.25605628803144E-16   7.50487099611554E-11   4.28526051644823E-16  -7.48820023824554E-11  -2.92042284170863E-18
      4.33747997253870E-17  -4.25605628803608E-16  -7.48820028740428E-11  -2.92042284171130E-18   7.48967894956470E-11
      4.28526051645295E-16
      1.00000000000000E+04
      2.00000000000000E-01   0.00000000000000E+00   0.00000000000000E+00  -4.70953443076077E-12   8.54641981763100E-16
     -6.77561654593654E-20  -4.27320990881068E-16  -6.77695607009141E-20  -4.27320990882018E-16   1.17883797084265E-16
     -4.27320990881069E-16   3.90131755425602E-10   4.30284438471264E-16  -3.90288125863287E-10  -2.96344759019319E-18
     -2.18515462542454E-16  -4.27320990882021E-16  -3.90288129736260E-10  -2.96344759019203E-18   3.89827914494585E-10
      4.30284438472204E-16
      1.00000000000000E+04
      1.50000000000000E-01   0.00000000000000E+00   0.00000000000000E+00  -4.70953443076077E-12   8.58821625459447E-16
     -9.12275909981061E-21  -4.29410812728032E-16  -9.12565411152341E-21  -4.29410812731385E-16  -6.72741305014550E-17
     -4.29410812728031E-16   2.02601132802018E-09   4.32427327541550E-16  -2.02603159218165E-09  -3.01651481354153E-18
      5.16991893719065E-17  -4.29410812731384E-16  -2.02603159127264E-09  -3.01651481354152E-18   2.02570748708916E-09
      4.32427327544913E-16
      1.00000000000000E+04
      1.00000000000000E-01   0.00000000000000E+00   0.00000000000000E+00  -4.70953443076077E-12   8.63985193661378E-16
     -2.61391270301358E-21  -4.31992596821693E-16  -2.61373987305980E-21  -4.31992596839650E-16  -1.20519414297305E-16
     -4.31992596821692E-16   1.04650412665469E-08   4.35075600791088E-16  -1.04650256300393E-08  -3.08300396942750E-18
     -1.01279542366864E-16  -4.31992596839649E-16  -1.04650256289559E-08  -3.08300396942752E-18   1.04648893460814E-08
      4.35075600809062E-16
      1.00000000000000E+04
      5.00000000000000E-02   0.00000000000000E+00   0.00000000000000E+00  -4.70953443076077E-12   8.70445065807121E-16
     -2.04063183117167E-21  -4.35222532852835E-16  -2.03960781781922E-21  -4.35222532954276E-16  -1.44161901434390E-16
     -4.35222532852835E-16   5.37157343535332E-08   4.38389961955802E-16  -5.37157102006780E-08  -3.16742910299231E-18
      1.91180629222326E-16  -4.35222532954276E-16  -5.37157101976875E-08  -3.16742910299232E-18   5.37158862739987E-08
      4.38389962057280E-16
      1.00000000000000E+04
      5.55111512312578E-17   0.00000000000000E+00   0.00000000000000E+00  -4.70953443076077E-12   8.78673523541417E-16
     -2.06064217737896E-21  -4.39336761484173E-16  -2.05941996307932E-21  -4.39336762057231E-16  -1.17663471423621E-17
     -4.39336761484173E-16   2.73488133531036E-07   4.42612439410542E-16  -2.73488473003249E-07  -3.27567792637674E-18
     -1.14671494890286E-16  -4.39336762057230E-16  -2.73488473004201E-07  -3.27567792637673E-18   2.73488133531036E-07
      4.42612439983622E-16
      1.00000000000000E+04
     -4.99999999999999E-02   0.00000000000000E+00   0.00000000000000E+00  -4.70953443076077E-12   8.89497484103889E-16
     -2.13492233191195E-21  -4.44748740444385E-16  -2.13352744925083E-21  -4.44748743659472E-16  -1.57300551569217E-18
     -4.44748740444385E-16   1.37745815123034E-06   4.48160433512653E-16  -1.37745818529054E-06  -3.41169306827276E-18
      1.22936510550362E-16  -4.44748743659471E-16  -1.37745818528887E-06  -3.41169306827276E-18   1.37745799930987E-06
      4.48160436727727E-16
      1.00000000000000E+04
     -1.00000000000000E-01   0.00000000000000E+00   0.00000000000000E+00  -4.70953443076077E-12   9.04570318280735E-16
     -2.25521770328924E-21  -4.52285150211513E-16  -2.25360745142764E-21  -4.52285168069202E-16  -6.93806584735827E-18
     -4.52285150211512E-16   6.83265757410696E-06   4.55834594217675E-16  -6.83265720123344E-06  -3.54944400617439E-18
      3.13180374848321E-17  -4.52285168069201E-16  -6.83265720123226E-06  -3.54944400617439E-18   6.83265696642509E-06
      4.55834612075365E-16
      1.00000000000000E+04
     -1.50000000000000E-01   0.00000000000000E+00   0.00000000000000E+00  -4.70953443076077E-12   9.27656648868468E-16
     -2.48796740864964E-21  -4.63828275530855E-16  -2.48606722721886E-21  -4.63828373337586E-16   2.13026324610318E-17
     -4.63828275530855E-16   3.31000773541291E-05   4.67293988406172E-16  -3.31000772952268E-05  -3.46571287532779E-18
      1.47854855479057E-17  -4.63828373337586E-16  -3.31000772952274E-05  -3.46571287532779E-18   3.31000770502881E-05
      4.67294086212913E-16
      1.00000000000000E+04
     -2.00000000000000E-01   0.00000000000000E+00   0.00000000000000E+00  -4.70953443076077E-12   9.68380177283604E-16
     -3.07503808547759E-21  -4.84189826443899E-16  -3.07270771547792E-21  -4.84190350839661E-16   9.28887481999572E-17
     -4.84189826443899E-16   1.53715162887569E-04   4.86076166715963E-16  -1.53715162674809E-04  -1.88634027207135E-18
      1.76033990647467E-16  -4.84190350839662E-16  -1.53715162674808E-04  -1.88634027207135E-18   1.53715162431808E-04
      4.86076691111702E-16
      1.00000000000000E+04
     -2.50000000000000E-01   0.00000000000000E+00   0.00000000000000E+00  -4.70953443076077E-12   1.05134918147579E-15
     -4.88287519139447E-21  -5.25673242292435E-16  -4.87984598136317E-21  -5.25675939183318E-16  -1.26430253809282E-16
     -5.25673242292435E-16   6.53707091799294E-04   5.18759812768021E-16  -6.53707092161070E-04   6.91342952438063E-18
     -4.62740458321259E-17  -5.25675939183319E-16  -6.53707092161073E-04   6.91342952438066E-18   6.53707092103135E-04
      5.18762509658941E-16
      1.00000000000000E+04
     -3.00000000000000E-01   0.00000000000000E+00   0.00000000000000E+00  -4.70953443076077E-12   1.21938452158083E-15
     -9.95171077439520E-21  -6.09686074155701E-16  -9.94769781680626E-21  -6.09698447425092E-16  -9.12665798626474E-17
     -6.09686074155701E-16   2.30362721184978E-03   5.70730039138317E-16  -2.30362721184301E-03   3.89560350173328E-17
     -9.70221305816230E-18  -6.09698447425093E-16  -2.30362721184301E-03   3.89560350173329E-17   2.30362721230554E-03
      5.70742412407764E-16
      1.00000000000000E+04
     -3.50000000000000E-01   0.00000000000000E+00   0.00000000000000E+00  -4.70953443076077E-12   1.47223779244769E-15
     -1.85319975002374E-20  -7.36097362225913E-16  -1.85276182515702E-20  -7.36140430221748E-16  -1.64564493662603E-19
     -7.36097362225912E-16   5.96053257607230E-03   6.30055119417897E-16  -5.96053257592874E-03   1.06042242808004E-16
     -7.87452187447475E-17  -7.36140430221747E-16  -5.96053257592873E-03   1.06042242808004E-16   5.96053257592038E-03
      6.30098187413737E-16
      1.00000000000000E+04
     -4.00000000000000E-01   0.00000000000000E+00   0.00000000000000E+00  -4.70953443076077E-12   1.72603447911274E-15
     -2.62616814859295E-20  -8.62965284403265E-16  -2.62587953042785E-20  -8.63069194709435E-16  -5.10170348181798E-18
     -8.62965284403266E-16   1.12555776918403E-02   6.75411108665507E-16  -1.12555776914915E-02   1.87554175737720E-16
      9.44809513407207E-18  -8.63069194709435E-16  -1.12555776914915E-02   1.87554175737720E-16   1.12555776921442E-02
      6.75515018971715E-16
      1.00000000000000E+04
     -4.50000000000000E-01   0.00000000000000E+00   0.00000000000000E+00  -4.70953443076077E-12   1.92864551977299E-15
     -3.10712955101466E-20  -9.64228530574498E-16  -3.10714898959732E-20  -9.64416989198433E-16  -9.03940499657033E-17
     -9.64228530574498E-16   1.71027499506629E-02   7.03624219434674E-16  -1.71027499510097E-02   2.60604311139795E-16
     -6.53670502286868E-17  -9.64416989198432E-16  -1.71027499510097E-02   2.60604311139795E-16   1.71027499512705E-02
      7.03812678058606E-16
      1.00000000000000E+04
     -5.00000000000000E-01   0.00000000000000E+00   0.00000000000000E+00  -4.70953443076077E-12   2.07833389959115E-15
     -3.36355923951388E-20  -1.03902429688459E-15  -3.36395693175340E-20  -1.03930960270648E-15  -7.37783034227617E-17
     -1.03902429688459E-15   2.28095740718369E-02   7.20112265396507E-16  -2.28095740723674E-02   3.18912031488040E-16
     -1.67823058736547E-16  -1.03930960270648E-15  -2.28095740723673E-02   3.18912031488039E-16   2.28095740721408E-02
      7.20397571218418E-16
      1.00000000000000E+04
     -5.50000000000000E-01   0.00000000000000E+00   0.00000000000000E+00  -4.70953443076077E-12   2.18606469510232E-15
     -3.48122005523382E-20  -1.09283945616081E-15  -3.48200409644276E-20  -1.09322523894144E-15   3.94591735915919E-16
     -1.09283945616081E-15   2.81038320025977E-02   7.29238089120143E-16  -2.81038320023867E-02   3.63601367040641E-16
      2.75582587203634E-16  -1.09322523894144E-15  -2.81038320023867E-02   3.63601367040640E-16   2.81038320015342E-02
      7.29623871900776E-16
      1.00000000000000E+04
     -6.00000000000000E-01   0.00000000000000E+00   0.00000000000000E+00  -4.70953443076077E-12   2.26344551554454E-15
     -3.51915701915121E-20  -1.13148025396536E-15  -3.52030584933670E-20  -1.13196526157913E-15  -1.48991983468847E-16
     -1.13148025396536E-15   3.29222101802355E-02   7.33879606749969E-16  -3.29222101805576E-02   3.97600647215373E-16
     -1.67531073576325E-16  -1.13196526157913E-15  -3.29222101805576E-02   3.97600647215373E-16   3.29222101809951E-02
      7.34364614363742E-16
      1.00000000000000E+04
     -6.50000000000000E-01   0.00000000000000E+00   0.00000000000000E+00  -4.70953443076077E-12   2.31983990336648E-15
     -3.51392967047805E-20  -1.15962954213741E-15  -3.51541233129679E-20  -1.16021036122909E-15  -2.38206399699360E-16
     -1.15962954213741E-15   3.72862952313249E-02   7.35894645263730E-16  -3.72862952313679E-02   4.23734896873683E-16
     -4.17314907793675E-18  -1.16021036122909E-15  -3.72862952313679E-02   4.23734896873683E-16   3.72862952316287E-02
      7.36475464355429E-16
      1.00000000000000E+04
     -7.00000000000000E-01   0.00000000000000E+00   0.00000000000000E+00  -4.70953443076077E-12   2.36190853314373E-15
     -3.48664937652588E-20  -1.18061799737309E-15  -3.48843491557091E-20  -1.18129053577058E-15  -1.43919714804178E-16
     -1.18061799737309E-15   4.12452302826156E-02   7.36422349593096E-16  -4.12452302827390E-02   4.44195647779980E-16
     -2.01122519286061E-16  -1.18129053577058E-15  -4.12452302827390E-02   4.44195647779980E-16   4.12452302827676E-02
      7.37094887990583E-16
      1.00000000000000E+04
     -7.50000000000000E-01   0.00000000000000E+00   0.00000000000000E+00  -4.70953443076077E-12   2.39412172090033E-15
     -3.44897188330470E-20  -1.19668077830973E-15  -3.45103267171192E-20  -1.19744094259054E-15   1.92314942318350E-16
     -1.19668077830973E-15   4.48520057433407E-02   7.36132684107594E-16  -4.48520057435558E-02   4.60548094202111E-16
     -6.52067621888274E-17  -1.19744094259054E-15  -4.48520057435558E-02   4.60548094202112E-16   4.48520057434927E-02
      7.36892848388421E-16
      1.00000000000000E+04
     -8.00000000000000E-01   0.00000000000000E+00   0.00000000000000E+00  -4.70953443076077E-12   2.41942912964390E-15
     -3.40717600969737E-20  -1.20929258465958E-15  -3.40948839526949E-20  -1.21013654498431E-15  -3.78640414872382E-16
     -1.20929258465958E-15   4.81549757771657E-02   7.35411619165656E-16  -4.81549757767151E-02   4.73880965493913E-16
     -1.02367948080602E-16  -1.21013654498431E-15  -4.81549757767151E-02   4.73880965493913E-16   4.81549757771657E-02
      7.36255579490398E-16
      1.00000000000000E+04
     -8.50000000000000E-01   0.00000000000000E+00   0.00000000000000E+00  -4.70953443076077E-12   2.43978757434587E-15
     -3.36458669997048E-20  -1.21943165330245E-15  -3.36713069910331E-20  -1.22035592104336E-15   7.53079027964933E-16
     -1.21943165330246E-15   5.11956585488430E-02   7.34479975562229E-16  -5.11956585492142E-02   4.84951677740221E-16
      7.08931927079146E-16  -1.22035592104336E-15  -5.11956585492141E-02   4.84951677740220E-16   5.11956585489949E-02
      7.35404243303105E-16
      1.00000000000000E+04
     -9.00000000000001E-01   0.00000000000000E+00   0.00000000000000E+00  -4.70953443076077E-12   2.45651663828462E-15
     -3.32292411216769E-20  -1.22775760531868E-15  -3.32568284801015E-20  -1.22875903296599E-15   8.78400687043614E-16
     -1.22775760531868E-15   5.40088793895017E-02   7.33463850493452E-16  -5.40088793895878E-02   4.94293754825267E-16
     -5.48218578440818E-16  -1.22875903296598E-15  -5.40088793895872E-02   4.94293754825264E-16   5.40088793896537E-02
      7.34465278140743E-16
      1.00000000000000E+04
     -9.50000000000001E-01   0.00000000000000E+00   0.00000000000000E+00  -4.70953443076077E-12   2.47052516877586E-15
     -3.28303741848629E-20  -1.23472470813736E-15  -3.28599656275034E-20  -1.23580046063843E-15   1.39888544614839E-16
     -1.23472470813736E-15   5.66236439879316E-02   7.32435000073698E-16  -5.66236439879255E-02   5.02289708063634E-16
     -6.11886963535041E-16  -1.23580046063842E-15  -5.66236439879251E-02   5.02289708063631E-16   5.66236439874758E-02
      7.33510752574763E-16
      1.00000000000000E+04
     -1.00000000000000E+00   0.00000000000000E+00   0.00000000000000E+00  -4.70953443076077E-12   2.48245346789053E-15
     -3.24530302489061E-20  -1.24065297468076E-15  -3.24845032028068E-20  -1.24180049320969E-15   9.43750090890159E-16
     -1.24065297468076E-15   5.90641262698177E-02   7.31433826414907E-16  -5.90641262697960E-02   5.09219148265820E-16
      6.03473837918415E-16  -1.24180049320969E-15  -5.90641262697958E-02   5.09219148265817E-16   5.90641262698177E-02
      7.32581344943838E-16
      1.00000000000000E+04
     -1.05000000000000E+00   0.00000000000000E+00   0.00000000000000E+00  -4.70953443076077E-12   2.49276300080747E-15
     -3.20984222997321E-20  -1.24577301710290E-15  -3.21316710403629E-20  -1.24698998370453E-15  -6.86421087875342E-17
     -1.24577301710290E-15   6.13505611208315E-02   7.30482537269760E-16  -6.13505611207833E-02   5.15290479833140E-16
     -5.55780776147648E-16  -1.24698998370452E-15  -6.13505611207832E-02   5.15290479833139E-16   6.13505611208315E-02
      7.31699503871362E-16
      1.00000000000000E+04
     -1.10000000000000E+00   0.00000000000000E+00   0.00000000000000E+00  -4.70953443076077E-12   2.50179378667673E-15
     -3.17664136652778E-20  -1.25025474028746E-15  -3.18013462647997E-20  -1.25153904638917E-15   3.99330156469956E-16
     -1.25025474028746E-15   6.34999894445490E-02   7.29592765569125E-16  -6.34999894440017E-02   5.20661974718292E-16
      3.80127276642770E-17  -1.25153904638917E-15  -6.34999894440017E-02   5.20661974718291E-16   6.34999894439413E-02
      7.30877071670831E-16
      1.00000000000000E+04
     -1.15000000000000E+00   0.00000000000000E+00   0.00000000000000E+00  -4.70953443076077E-12   2.50980178435975E-15
     -3.14561870267183E-20  -1.25422603243342E-15  -3.14927229616133E-20  -1.25557575192638E-15   1.08215762908285E-15
     -1.25422603243343E-15   6.55268597014086E-02   7.28770041086056E-16  -6.55268597019143E-02   5.25455991347409E-16
      7.14248344941264E-16  -1.25557575192639E-15  -6.55268597019142E-02   5.25455991347407E-16   6.55268597017124E-02
      7.30119760579015E-16
      1.00000000000000E+04
     -1.20000000000000E+00   0.00000000000000E+00   0.00000000000000E+00  -4.70953443076077E-12   2.51698372960004E-15
     -3.11666188206015E-20  -1.25778518145495E-15  -3.12046870985002E-20  -1.25919854814504E-15  -2.66384350720773E-16
     -1.25778518145495E-15   6.74435071723555E-02   7.28016450337395E-16  -6.74435071726399E-02   5.29768731117545E-16
     -4.76537070756871E-16  -1.25919854814504E-15  -6.74435071726398E-02   5.29768731117544E-16   6.74435071735709E-02
      7.29429817027480E-16
      1.00000000000000E+04
     -1.25000000000000E+00   0.00000000000000E+00   0.00000000000000E+00  -4.70953443076077E-12   2.52343643758334E-15
     -3.08948642400839E-20  -1.26098054494917E-15  -3.09343998439998E-20  -1.26245589263401E-15  -1.11732630365944E-15
     -1.26098054494916E-15   6.92605265895116E-02   7.27317759361863E-16  -6.92605265893128E-02   5.33662785587223E-16
     -1.58081753145181E-15  -1.26245589263400E-15  -6.92605265893127E-02   5.33662785587222E-16   6.92605265895116E-02
      7.28793107046703E-16
      1.00000000000000E+04
     -1.30000000000000E+00   0.00000000000000E+00   0.00000000000000E+00  -4.70953443076077E-12   2.52916721583363E-15
     -3.06365429763534E-20  -1.26381574922587E-15  -3.06774833283957E-20  -1.26535146660762E-15   1.75602077382344E-15
     -1.26381574922589E-15   7.09870521725368E-02   7.26644136346464E-16  -7.09870521727970E-02   5.37171612879372E-16
      1.64165694186489E-15  -1.26535146660763E-15  -7.09870521727969E-02   5.37171612879371E-16   7.09870521722329E-02
      7.28179853728193E-16
      1.00000000000000E+04
     -1.35000000000000E+00   0.00000000000000E+00   0.00000000000000E+00  -4.70953443076077E-12   2.53435092230953E-15
     -3.03927574755268E-20  -1.26637814831410E-15  -3.04350482913818E-20  -1.26797277399535E-15   1.91372760702315E-15
     -1.26637814831412E-15   7.26310401736527E-02   7.26013350304794E-16  -7.26310401741465E-02   5.40364798009285E-16
      2.06209184825583E-15  -1.26797277399537E-15  -7.26310401741466E-02   5.40364798009285E-16   7.26310401742604E-02
      7.27607975986056E-16
      1.00000000000000E+04
     -1.40000000000000E+00   0.00000000000000E+00   0.00000000000000E+00  -4.70953443076077E-12   2.53910187783348E-15
     -3.01633826024927E-20  -1.26872484265136E-15  -3.02069757719642E-20  -1.27037703518230E-15   1.00167206531918E-15
     -1.26872484265137E-15   7.41994988372211E-02   7.25432180111780E-16  -7.41994988375759E-02   5.43292662539683E-16
      1.11358499976814E-15  -1.27037703518231E-15  -7.41994988375760E-02   5.43292662539684E-16   7.41994988373730E-02
      7.27084372642724E-16
      1.00000000000000E+04
     -1.45000000000000E+00   0.00000000000000E+00   0.00000000000000E+00  -4.70953443076077E-12   2.54348763435237E-15
     -2.99474532138554E-20  -1.27088956684501E-15  -2.99923050395662E-20  -1.27259806750753E-15  -2.33196412481449E-15
     -1.27088956684499E-15   7.56985934029154E-02   7.24899086179324E-16  -7.56985934035119E-02   5.45990480665760E-16
     -2.29075649665104E-15  -1.27259806750751E-15  -7.56985934035119E-02   5.45990480665760E-16   7.56985934032193E-02
      7.26607586841834E-16
      1.00000000000000E+04
     -1.50000000000000E+00   0.00000000000000E+00   0.00000000000000E+00  -4.70953443076077E-12   2.54755477976561E-15
     -2.97438255298689E-20  -1.27289557973209E-15  -2.97898957839982E-20  -1.27465920003354E-15  -1.13246199704246E-15
     -1.27289557973208E-15   7.71337748238296E-02   7.24410035064421E-16  -7.71337748232128E-02   5.48485544667686E-16
     -9.05837845481036E-16  -1.27465920003353E-15  -7.71337748232129E-02   5.48485544667687E-16   7.71337748227662E-02
      7.26173655365863E-16
}
